This is the initial atom setup of ./test.lmpdata
440 atoms 
2 atom types 
220 bonds 
220 bond types 
-30.0 330.0 xlo xhi 
-30.0 330.0 ylo yhi 
-0.02 0.02 zlo zhi 

Atoms

1	 1	 20.0	 0.0	 0.001	 10.3	 5.791406870113643e-05	 0.0	 0	 0	 0	 0.0576	 1 #atom id|type|x0|y0|z0|d|rho|m|mx|my|mz|chi|trap_id
2	 1	 50.0	 0.0	 0.001	 10.3	 5.791406870113643e-05	 0.0	 0	 0	 0	 0.0576	 2 #atom id|type|x0|y0|z0|d|rho|m|mx|my|mz|chi|trap_id
3	 1	 80.0	 0.0	 0.001	 10.3	 5.791406870113643e-05	 0.0	 0	 0	 0	 0.0576	 3 #atom id|type|x0|y0|z0|d|rho|m|mx|my|mz|chi|trap_id
4	 1	 110.0	 0.0	 0.001	 10.3	 5.791406870113643e-05	 0.0	 0	 0	 0	 0.0576	 4 #atom id|type|x0|y0|z0|d|rho|m|mx|my|mz|chi|trap_id
5	 1	 140.0	 0.0	 0.001	 10.3	 5.791406870113643e-05	 0.0	 0	 0	 0	 0.0576	 5 #atom id|type|x0|y0|z0|d|rho|m|mx|my|mz|chi|trap_id
6	 1	 170.0	 0.0	 0.001	 10.3	 5.791406870113643e-05	 0.0	 0	 0	 0	 0.0576	 6 #atom id|type|x0|y0|z0|d|rho|m|mx|my|mz|chi|trap_id
7	 1	 200.0	 0.0	 0.001	 10.3	 5.791406870113643e-05	 0.0	 0	 0	 0	 0.0576	 7 #atom id|type|x0|y0|z0|d|rho|m|mx|my|mz|chi|trap_id
8	 1	 230.0	 0.0	 0.001	 10.3	 5.791406870113643e-05	 0.0	 0	 0	 0	 0.0576	 8 #atom id|type|x0|y0|z0|d|rho|m|mx|my|mz|chi|trap_id
9	 1	 260.0	 0.0	 0.001	 10.3	 5.791406870113643e-05	 0.0	 0	 0	 0	 0.0576	 9 #atom id|type|x0|y0|z0|d|rho|m|mx|my|mz|chi|trap_id
10	 1	 290.0	 0.0	 0.001	 10.3	 5.791406870113643e-05	 0.0	 0	 0	 0	 0.0576	 10 #atom id|type|x0|y0|z0|d|rho|m|mx|my|mz|chi|trap_id
11	 1	 20.0	 30.0	 0.001	 10.3	 5.791406870113643e-05	 0.0	 0	 0	 0	 0.0576	 11 #atom id|type|x0|y0|z0|d|rho|m|mx|my|mz|chi|trap_id
12	 1	 50.0	 30.0	 0.001	 10.3	 5.791406870113643e-05	 0.0	 0	 0	 0	 0.0576	 12 #atom id|type|x0|y0|z0|d|rho|m|mx|my|mz|chi|trap_id
13	 1	 80.0	 30.0	 0.001	 10.3	 5.791406870113643e-05	 0.0	 0	 0	 0	 0.0576	 13 #atom id|type|x0|y0|z0|d|rho|m|mx|my|mz|chi|trap_id
14	 1	 110.0	 30.0	 0.001	 10.3	 5.791406870113643e-05	 0.0	 0	 0	 0	 0.0576	 14 #atom id|type|x0|y0|z0|d|rho|m|mx|my|mz|chi|trap_id
15	 1	 140.0	 30.0	 0.001	 10.3	 5.791406870113643e-05	 0.0	 0	 0	 0	 0.0576	 15 #atom id|type|x0|y0|z0|d|rho|m|mx|my|mz|chi|trap_id
16	 1	 170.0	 30.0	 0.001	 10.3	 5.791406870113643e-05	 0.0	 0	 0	 0	 0.0576	 16 #atom id|type|x0|y0|z0|d|rho|m|mx|my|mz|chi|trap_id
17	 1	 200.0	 30.0	 0.001	 10.3	 5.791406870113643e-05	 0.0	 0	 0	 0	 0.0576	 17 #atom id|type|x0|y0|z0|d|rho|m|mx|my|mz|chi|trap_id
18	 1	 230.0	 30.0	 0.001	 10.3	 5.791406870113643e-05	 0.0	 0	 0	 0	 0.0576	 18 #atom id|type|x0|y0|z0|d|rho|m|mx|my|mz|chi|trap_id
19	 1	 260.0	 30.0	 0.001	 10.3	 5.791406870113643e-05	 0.0	 0	 0	 0	 0.0576	 19 #atom id|type|x0|y0|z0|d|rho|m|mx|my|mz|chi|trap_id
20	 1	 290.0	 30.0	 0.001	 10.3	 5.791406870113643e-05	 0.0	 0	 0	 0	 0.0576	 20 #atom id|type|x0|y0|z0|d|rho|m|mx|my|mz|chi|trap_id
21	 1	 20.0	 60.0	 0.001	 10.3	 5.791406870113643e-05	 0.0	 0	 0	 0	 0.0576	 21 #atom id|type|x0|y0|z0|d|rho|m|mx|my|mz|chi|trap_id
22	 1	 50.0	 60.0	 0.001	 10.3	 5.791406870113643e-05	 0.0	 0	 0	 0	 0.0576	 22 #atom id|type|x0|y0|z0|d|rho|m|mx|my|mz|chi|trap_id
23	 1	 80.0	 60.0	 0.001	 10.3	 5.791406870113643e-05	 0.0	 0	 0	 0	 0.0576	 23 #atom id|type|x0|y0|z0|d|rho|m|mx|my|mz|chi|trap_id
24	 1	 110.0	 60.0	 0.001	 10.3	 5.791406870113643e-05	 0.0	 0	 0	 0	 0.0576	 24 #atom id|type|x0|y0|z0|d|rho|m|mx|my|mz|chi|trap_id
25	 1	 140.0	 60.0	 0.001	 10.3	 5.791406870113643e-05	 0.0	 0	 0	 0	 0.0576	 25 #atom id|type|x0|y0|z0|d|rho|m|mx|my|mz|chi|trap_id
26	 1	 170.0	 60.0	 0.001	 10.3	 5.791406870113643e-05	 0.0	 0	 0	 0	 0.0576	 26 #atom id|type|x0|y0|z0|d|rho|m|mx|my|mz|chi|trap_id
27	 1	 200.0	 60.0	 0.001	 10.3	 5.791406870113643e-05	 0.0	 0	 0	 0	 0.0576	 27 #atom id|type|x0|y0|z0|d|rho|m|mx|my|mz|chi|trap_id
28	 1	 230.0	 60.0	 0.001	 10.3	 5.791406870113643e-05	 0.0	 0	 0	 0	 0.0576	 28 #atom id|type|x0|y0|z0|d|rho|m|mx|my|mz|chi|trap_id
29	 1	 260.0	 60.0	 0.001	 10.3	 5.791406870113643e-05	 0.0	 0	 0	 0	 0.0576	 29 #atom id|type|x0|y0|z0|d|rho|m|mx|my|mz|chi|trap_id
30	 1	 290.0	 60.0	 0.001	 10.3	 5.791406870113643e-05	 0.0	 0	 0	 0	 0.0576	 30 #atom id|type|x0|y0|z0|d|rho|m|mx|my|mz|chi|trap_id
31	 1	 20.0	 90.0	 0.001	 10.3	 5.791406870113643e-05	 0.0	 0	 0	 0	 0.0576	 31 #atom id|type|x0|y0|z0|d|rho|m|mx|my|mz|chi|trap_id
32	 1	 50.0	 90.0	 0.001	 10.3	 5.791406870113643e-05	 0.0	 0	 0	 0	 0.0576	 32 #atom id|type|x0|y0|z0|d|rho|m|mx|my|mz|chi|trap_id
33	 1	 80.0	 90.0	 0.001	 10.3	 5.791406870113643e-05	 0.0	 0	 0	 0	 0.0576	 33 #atom id|type|x0|y0|z0|d|rho|m|mx|my|mz|chi|trap_id
34	 1	 110.0	 90.0	 0.001	 10.3	 5.791406870113643e-05	 0.0	 0	 0	 0	 0.0576	 34 #atom id|type|x0|y0|z0|d|rho|m|mx|my|mz|chi|trap_id
35	 1	 140.0	 90.0	 0.001	 10.3	 5.791406870113643e-05	 0.0	 0	 0	 0	 0.0576	 35 #atom id|type|x0|y0|z0|d|rho|m|mx|my|mz|chi|trap_id
36	 1	 170.0	 90.0	 0.001	 10.3	 5.791406870113643e-05	 0.0	 0	 0	 0	 0.0576	 36 #atom id|type|x0|y0|z0|d|rho|m|mx|my|mz|chi|trap_id
37	 1	 200.0	 90.0	 0.001	 10.3	 5.791406870113643e-05	 0.0	 0	 0	 0	 0.0576	 37 #atom id|type|x0|y0|z0|d|rho|m|mx|my|mz|chi|trap_id
38	 1	 230.0	 90.0	 0.001	 10.3	 5.791406870113643e-05	 0.0	 0	 0	 0	 0.0576	 38 #atom id|type|x0|y0|z0|d|rho|m|mx|my|mz|chi|trap_id
39	 1	 260.0	 90.0	 0.001	 10.3	 5.791406870113643e-05	 0.0	 0	 0	 0	 0.0576	 39 #atom id|type|x0|y0|z0|d|rho|m|mx|my|mz|chi|trap_id
40	 1	 290.0	 90.0	 0.001	 10.3	 5.791406870113643e-05	 0.0	 0	 0	 0	 0.0576	 40 #atom id|type|x0|y0|z0|d|rho|m|mx|my|mz|chi|trap_id
41	 1	 20.0	 120.0	 0.001	 10.3	 5.791406870113643e-05	 0.0	 0	 0	 0	 0.0576	 41 #atom id|type|x0|y0|z0|d|rho|m|mx|my|mz|chi|trap_id
42	 1	 50.0	 120.0	 0.001	 10.3	 5.791406870113643e-05	 0.0	 0	 0	 0	 0.0576	 42 #atom id|type|x0|y0|z0|d|rho|m|mx|my|mz|chi|trap_id
43	 1	 80.0	 120.0	 0.001	 10.3	 5.791406870113643e-05	 0.0	 0	 0	 0	 0.0576	 43 #atom id|type|x0|y0|z0|d|rho|m|mx|my|mz|chi|trap_id
44	 1	 110.0	 120.0	 0.001	 10.3	 5.791406870113643e-05	 0.0	 0	 0	 0	 0.0576	 44 #atom id|type|x0|y0|z0|d|rho|m|mx|my|mz|chi|trap_id
45	 1	 140.0	 120.0	 0.001	 10.3	 5.791406870113643e-05	 0.0	 0	 0	 0	 0.0576	 45 #atom id|type|x0|y0|z0|d|rho|m|mx|my|mz|chi|trap_id
46	 1	 170.0	 120.0	 0.001	 10.3	 5.791406870113643e-05	 0.0	 0	 0	 0	 0.0576	 46 #atom id|type|x0|y0|z0|d|rho|m|mx|my|mz|chi|trap_id
47	 1	 200.0	 120.0	 0.001	 10.3	 5.791406870113643e-05	 0.0	 0	 0	 0	 0.0576	 47 #atom id|type|x0|y0|z0|d|rho|m|mx|my|mz|chi|trap_id
48	 1	 230.0	 120.0	 0.001	 10.3	 5.791406870113643e-05	 0.0	 0	 0	 0	 0.0576	 48 #atom id|type|x0|y0|z0|d|rho|m|mx|my|mz|chi|trap_id
49	 1	 260.0	 120.0	 0.001	 10.3	 5.791406870113643e-05	 0.0	 0	 0	 0	 0.0576	 49 #atom id|type|x0|y0|z0|d|rho|m|mx|my|mz|chi|trap_id
50	 1	 290.0	 120.0	 0.001	 10.3	 5.791406870113643e-05	 0.0	 0	 0	 0	 0.0576	 50 #atom id|type|x0|y0|z0|d|rho|m|mx|my|mz|chi|trap_id
51	 1	 20.0	 150.0	 0.001	 10.3	 5.791406870113643e-05	 0.0	 0	 0	 0	 0.0576	 51 #atom id|type|x0|y0|z0|d|rho|m|mx|my|mz|chi|trap_id
52	 1	 50.0	 150.0	 0.001	 10.3	 5.791406870113643e-05	 0.0	 0	 0	 0	 0.0576	 52 #atom id|type|x0|y0|z0|d|rho|m|mx|my|mz|chi|trap_id
53	 1	 80.0	 150.0	 0.001	 10.3	 5.791406870113643e-05	 0.0	 0	 0	 0	 0.0576	 53 #atom id|type|x0|y0|z0|d|rho|m|mx|my|mz|chi|trap_id
54	 1	 110.0	 150.0	 0.001	 10.3	 5.791406870113643e-05	 0.0	 0	 0	 0	 0.0576	 54 #atom id|type|x0|y0|z0|d|rho|m|mx|my|mz|chi|trap_id
55	 1	 140.0	 150.0	 0.001	 10.3	 5.791406870113643e-05	 0.0	 0	 0	 0	 0.0576	 55 #atom id|type|x0|y0|z0|d|rho|m|mx|my|mz|chi|trap_id
56	 1	 170.0	 150.0	 0.001	 10.3	 5.791406870113643e-05	 0.0	 0	 0	 0	 0.0576	 56 #atom id|type|x0|y0|z0|d|rho|m|mx|my|mz|chi|trap_id
57	 1	 200.0	 150.0	 0.001	 10.3	 5.791406870113643e-05	 0.0	 0	 0	 0	 0.0576	 57 #atom id|type|x0|y0|z0|d|rho|m|mx|my|mz|chi|trap_id
58	 1	 230.0	 150.0	 0.001	 10.3	 5.791406870113643e-05	 0.0	 0	 0	 0	 0.0576	 58 #atom id|type|x0|y0|z0|d|rho|m|mx|my|mz|chi|trap_id
59	 1	 260.0	 150.0	 0.001	 10.3	 5.791406870113643e-05	 0.0	 0	 0	 0	 0.0576	 59 #atom id|type|x0|y0|z0|d|rho|m|mx|my|mz|chi|trap_id
60	 1	 290.0	 150.0	 0.001	 10.3	 5.791406870113643e-05	 0.0	 0	 0	 0	 0.0576	 60 #atom id|type|x0|y0|z0|d|rho|m|mx|my|mz|chi|trap_id
61	 1	 20.0	 180.0	 0.001	 10.3	 5.791406870113643e-05	 0.0	 0	 0	 0	 0.0576	 61 #atom id|type|x0|y0|z0|d|rho|m|mx|my|mz|chi|trap_id
62	 1	 50.0	 180.0	 0.001	 10.3	 5.791406870113643e-05	 0.0	 0	 0	 0	 0.0576	 62 #atom id|type|x0|y0|z0|d|rho|m|mx|my|mz|chi|trap_id
63	 1	 80.0	 180.0	 0.001	 10.3	 5.791406870113643e-05	 0.0	 0	 0	 0	 0.0576	 63 #atom id|type|x0|y0|z0|d|rho|m|mx|my|mz|chi|trap_id
64	 1	 110.0	 180.0	 0.001	 10.3	 5.791406870113643e-05	 0.0	 0	 0	 0	 0.0576	 64 #atom id|type|x0|y0|z0|d|rho|m|mx|my|mz|chi|trap_id
65	 1	 140.0	 180.0	 0.001	 10.3	 5.791406870113643e-05	 0.0	 0	 0	 0	 0.0576	 65 #atom id|type|x0|y0|z0|d|rho|m|mx|my|mz|chi|trap_id
66	 1	 170.0	 180.0	 0.001	 10.3	 5.791406870113643e-05	 0.0	 0	 0	 0	 0.0576	 66 #atom id|type|x0|y0|z0|d|rho|m|mx|my|mz|chi|trap_id
67	 1	 200.0	 180.0	 0.001	 10.3	 5.791406870113643e-05	 0.0	 0	 0	 0	 0.0576	 67 #atom id|type|x0|y0|z0|d|rho|m|mx|my|mz|chi|trap_id
68	 1	 230.0	 180.0	 0.001	 10.3	 5.791406870113643e-05	 0.0	 0	 0	 0	 0.0576	 68 #atom id|type|x0|y0|z0|d|rho|m|mx|my|mz|chi|trap_id
69	 1	 260.0	 180.0	 0.001	 10.3	 5.791406870113643e-05	 0.0	 0	 0	 0	 0.0576	 69 #atom id|type|x0|y0|z0|d|rho|m|mx|my|mz|chi|trap_id
70	 1	 290.0	 180.0	 0.001	 10.3	 5.791406870113643e-05	 0.0	 0	 0	 0	 0.0576	 70 #atom id|type|x0|y0|z0|d|rho|m|mx|my|mz|chi|trap_id
71	 1	 20.0	 210.0	 0.001	 10.3	 5.791406870113643e-05	 0.0	 0	 0	 0	 0.0576	 71 #atom id|type|x0|y0|z0|d|rho|m|mx|my|mz|chi|trap_id
72	 1	 50.0	 210.0	 0.001	 10.3	 5.791406870113643e-05	 0.0	 0	 0	 0	 0.0576	 72 #atom id|type|x0|y0|z0|d|rho|m|mx|my|mz|chi|trap_id
73	 1	 80.0	 210.0	 0.001	 10.3	 5.791406870113643e-05	 0.0	 0	 0	 0	 0.0576	 73 #atom id|type|x0|y0|z0|d|rho|m|mx|my|mz|chi|trap_id
74	 1	 110.0	 210.0	 0.001	 10.3	 5.791406870113643e-05	 0.0	 0	 0	 0	 0.0576	 74 #atom id|type|x0|y0|z0|d|rho|m|mx|my|mz|chi|trap_id
75	 1	 140.0	 210.0	 0.001	 10.3	 5.791406870113643e-05	 0.0	 0	 0	 0	 0.0576	 75 #atom id|type|x0|y0|z0|d|rho|m|mx|my|mz|chi|trap_id
76	 1	 170.0	 210.0	 0.001	 10.3	 5.791406870113643e-05	 0.0	 0	 0	 0	 0.0576	 76 #atom id|type|x0|y0|z0|d|rho|m|mx|my|mz|chi|trap_id
77	 1	 200.0	 210.0	 0.001	 10.3	 5.791406870113643e-05	 0.0	 0	 0	 0	 0.0576	 77 #atom id|type|x0|y0|z0|d|rho|m|mx|my|mz|chi|trap_id
78	 1	 230.0	 210.0	 0.001	 10.3	 5.791406870113643e-05	 0.0	 0	 0	 0	 0.0576	 78 #atom id|type|x0|y0|z0|d|rho|m|mx|my|mz|chi|trap_id
79	 1	 260.0	 210.0	 0.001	 10.3	 5.791406870113643e-05	 0.0	 0	 0	 0	 0.0576	 79 #atom id|type|x0|y0|z0|d|rho|m|mx|my|mz|chi|trap_id
80	 1	 290.0	 210.0	 0.001	 10.3	 5.791406870113643e-05	 0.0	 0	 0	 0	 0.0576	 80 #atom id|type|x0|y0|z0|d|rho|m|mx|my|mz|chi|trap_id
81	 1	 20.0	 240.0	 0.001	 10.3	 5.791406870113643e-05	 0.0	 0	 0	 0	 0.0576	 81 #atom id|type|x0|y0|z0|d|rho|m|mx|my|mz|chi|trap_id
82	 1	 50.0	 240.0	 0.001	 10.3	 5.791406870113643e-05	 0.0	 0	 0	 0	 0.0576	 82 #atom id|type|x0|y0|z0|d|rho|m|mx|my|mz|chi|trap_id
83	 1	 80.0	 240.0	 0.001	 10.3	 5.791406870113643e-05	 0.0	 0	 0	 0	 0.0576	 83 #atom id|type|x0|y0|z0|d|rho|m|mx|my|mz|chi|trap_id
84	 1	 110.0	 240.0	 0.001	 10.3	 5.791406870113643e-05	 0.0	 0	 0	 0	 0.0576	 84 #atom id|type|x0|y0|z0|d|rho|m|mx|my|mz|chi|trap_id
85	 1	 140.0	 240.0	 0.001	 10.3	 5.791406870113643e-05	 0.0	 0	 0	 0	 0.0576	 85 #atom id|type|x0|y0|z0|d|rho|m|mx|my|mz|chi|trap_id
86	 1	 170.0	 240.0	 0.001	 10.3	 5.791406870113643e-05	 0.0	 0	 0	 0	 0.0576	 86 #atom id|type|x0|y0|z0|d|rho|m|mx|my|mz|chi|trap_id
87	 1	 200.0	 240.0	 0.001	 10.3	 5.791406870113643e-05	 0.0	 0	 0	 0	 0.0576	 87 #atom id|type|x0|y0|z0|d|rho|m|mx|my|mz|chi|trap_id
88	 1	 230.0	 240.0	 0.001	 10.3	 5.791406870113643e-05	 0.0	 0	 0	 0	 0.0576	 88 #atom id|type|x0|y0|z0|d|rho|m|mx|my|mz|chi|trap_id
89	 1	 260.0	 240.0	 0.001	 10.3	 5.791406870113643e-05	 0.0	 0	 0	 0	 0.0576	 89 #atom id|type|x0|y0|z0|d|rho|m|mx|my|mz|chi|trap_id
90	 1	 290.0	 240.0	 0.001	 10.3	 5.791406870113643e-05	 0.0	 0	 0	 0	 0.0576	 90 #atom id|type|x0|y0|z0|d|rho|m|mx|my|mz|chi|trap_id
91	 1	 20.0	 270.0	 0.001	 10.3	 5.791406870113643e-05	 0.0	 0	 0	 0	 0.0576	 91 #atom id|type|x0|y0|z0|d|rho|m|mx|my|mz|chi|trap_id
92	 1	 50.0	 270.0	 0.001	 10.3	 5.791406870113643e-05	 0.0	 0	 0	 0	 0.0576	 92 #atom id|type|x0|y0|z0|d|rho|m|mx|my|mz|chi|trap_id
93	 1	 80.0	 270.0	 0.001	 10.3	 5.791406870113643e-05	 0.0	 0	 0	 0	 0.0576	 93 #atom id|type|x0|y0|z0|d|rho|m|mx|my|mz|chi|trap_id
94	 1	 110.0	 270.0	 0.001	 10.3	 5.791406870113643e-05	 0.0	 0	 0	 0	 0.0576	 94 #atom id|type|x0|y0|z0|d|rho|m|mx|my|mz|chi|trap_id
95	 1	 140.0	 270.0	 0.001	 10.3	 5.791406870113643e-05	 0.0	 0	 0	 0	 0.0576	 95 #atom id|type|x0|y0|z0|d|rho|m|mx|my|mz|chi|trap_id
96	 1	 170.0	 270.0	 0.001	 10.3	 5.791406870113643e-05	 0.0	 0	 0	 0	 0.0576	 96 #atom id|type|x0|y0|z0|d|rho|m|mx|my|mz|chi|trap_id
97	 1	 200.0	 270.0	 0.001	 10.3	 5.791406870113643e-05	 0.0	 0	 0	 0	 0.0576	 97 #atom id|type|x0|y0|z0|d|rho|m|mx|my|mz|chi|trap_id
98	 1	 230.0	 270.0	 0.001	 10.3	 5.791406870113643e-05	 0.0	 0	 0	 0	 0.0576	 98 #atom id|type|x0|y0|z0|d|rho|m|mx|my|mz|chi|trap_id
99	 1	 260.0	 270.0	 0.001	 10.3	 5.791406870113643e-05	 0.0	 0	 0	 0	 0.0576	 99 #atom id|type|x0|y0|z0|d|rho|m|mx|my|mz|chi|trap_id
100	 1	 290.0	 270.0	 0.001	 10.3	 5.791406870113643e-05	 0.0	 0	 0	 0	 0.0576	 100 #atom id|type|x0|y0|z0|d|rho|m|mx|my|mz|chi|trap_id
101	 1	 0.0	 20.0	 0.001	 10.3	 5.791406870113643e-05	 0.0	 0	 0	 0	 0.0576	 101 #atom id|type|x0|y0|z0|d|rho|m|mx|my|mz|chi|trap_id
102	 1	 30.0	 20.0	 0.001	 10.3	 5.791406870113643e-05	 0.0	 0	 0	 0	 0.0576	 102 #atom id|type|x0|y0|z0|d|rho|m|mx|my|mz|chi|trap_id
103	 1	 60.0	 20.0	 0.001	 10.3	 5.791406870113643e-05	 0.0	 0	 0	 0	 0.0576	 103 #atom id|type|x0|y0|z0|d|rho|m|mx|my|mz|chi|trap_id
104	 1	 90.0	 20.0	 0.001	 10.3	 5.791406870113643e-05	 0.0	 0	 0	 0	 0.0576	 104 #atom id|type|x0|y0|z0|d|rho|m|mx|my|mz|chi|trap_id
105	 1	 120.0	 20.0	 0.001	 10.3	 5.791406870113643e-05	 0.0	 0	 0	 0	 0.0576	 105 #atom id|type|x0|y0|z0|d|rho|m|mx|my|mz|chi|trap_id
106	 1	 150.0	 20.0	 0.001	 10.3	 5.791406870113643e-05	 0.0	 0	 0	 0	 0.0576	 106 #atom id|type|x0|y0|z0|d|rho|m|mx|my|mz|chi|trap_id
107	 1	 180.0	 20.0	 0.001	 10.3	 5.791406870113643e-05	 0.0	 0	 0	 0	 0.0576	 107 #atom id|type|x0|y0|z0|d|rho|m|mx|my|mz|chi|trap_id
108	 1	 210.0	 20.0	 0.001	 10.3	 5.791406870113643e-05	 0.0	 0	 0	 0	 0.0576	 108 #atom id|type|x0|y0|z0|d|rho|m|mx|my|mz|chi|trap_id
109	 1	 240.0	 20.0	 0.001	 10.3	 5.791406870113643e-05	 0.0	 0	 0	 0	 0.0576	 109 #atom id|type|x0|y0|z0|d|rho|m|mx|my|mz|chi|trap_id
110	 1	 270.0	 20.0	 0.001	 10.3	 5.791406870113643e-05	 0.0	 0	 0	 0	 0.0576	 110 #atom id|type|x0|y0|z0|d|rho|m|mx|my|mz|chi|trap_id
111	 1	 0.0	 50.0	 0.001	 10.3	 5.791406870113643e-05	 0.0	 0	 0	 0	 0.0576	 111 #atom id|type|x0|y0|z0|d|rho|m|mx|my|mz|chi|trap_id
112	 1	 30.0	 50.0	 0.001	 10.3	 5.791406870113643e-05	 0.0	 0	 0	 0	 0.0576	 112 #atom id|type|x0|y0|z0|d|rho|m|mx|my|mz|chi|trap_id
113	 1	 60.0	 50.0	 0.001	 10.3	 5.791406870113643e-05	 0.0	 0	 0	 0	 0.0576	 113 #atom id|type|x0|y0|z0|d|rho|m|mx|my|mz|chi|trap_id
114	 1	 90.0	 50.0	 0.001	 10.3	 5.791406870113643e-05	 0.0	 0	 0	 0	 0.0576	 114 #atom id|type|x0|y0|z0|d|rho|m|mx|my|mz|chi|trap_id
115	 1	 120.0	 50.0	 0.001	 10.3	 5.791406870113643e-05	 0.0	 0	 0	 0	 0.0576	 115 #atom id|type|x0|y0|z0|d|rho|m|mx|my|mz|chi|trap_id
116	 1	 150.0	 50.0	 0.001	 10.3	 5.791406870113643e-05	 0.0	 0	 0	 0	 0.0576	 116 #atom id|type|x0|y0|z0|d|rho|m|mx|my|mz|chi|trap_id
117	 1	 180.0	 50.0	 0.001	 10.3	 5.791406870113643e-05	 0.0	 0	 0	 0	 0.0576	 117 #atom id|type|x0|y0|z0|d|rho|m|mx|my|mz|chi|trap_id
118	 1	 210.0	 50.0	 0.001	 10.3	 5.791406870113643e-05	 0.0	 0	 0	 0	 0.0576	 118 #atom id|type|x0|y0|z0|d|rho|m|mx|my|mz|chi|trap_id
119	 1	 240.0	 50.0	 0.001	 10.3	 5.791406870113643e-05	 0.0	 0	 0	 0	 0.0576	 119 #atom id|type|x0|y0|z0|d|rho|m|mx|my|mz|chi|trap_id
120	 1	 270.0	 50.0	 0.001	 10.3	 5.791406870113643e-05	 0.0	 0	 0	 0	 0.0576	 120 #atom id|type|x0|y0|z0|d|rho|m|mx|my|mz|chi|trap_id
121	 1	 0.0	 80.0	 0.001	 10.3	 5.791406870113643e-05	 0.0	 0	 0	 0	 0.0576	 121 #atom id|type|x0|y0|z0|d|rho|m|mx|my|mz|chi|trap_id
122	 1	 30.0	 80.0	 0.001	 10.3	 5.791406870113643e-05	 0.0	 0	 0	 0	 0.0576	 122 #atom id|type|x0|y0|z0|d|rho|m|mx|my|mz|chi|trap_id
123	 1	 60.0	 80.0	 0.001	 10.3	 5.791406870113643e-05	 0.0	 0	 0	 0	 0.0576	 123 #atom id|type|x0|y0|z0|d|rho|m|mx|my|mz|chi|trap_id
124	 1	 90.0	 80.0	 0.001	 10.3	 5.791406870113643e-05	 0.0	 0	 0	 0	 0.0576	 124 #atom id|type|x0|y0|z0|d|rho|m|mx|my|mz|chi|trap_id
125	 1	 120.0	 80.0	 0.001	 10.3	 5.791406870113643e-05	 0.0	 0	 0	 0	 0.0576	 125 #atom id|type|x0|y0|z0|d|rho|m|mx|my|mz|chi|trap_id
126	 1	 150.0	 80.0	 0.001	 10.3	 5.791406870113643e-05	 0.0	 0	 0	 0	 0.0576	 126 #atom id|type|x0|y0|z0|d|rho|m|mx|my|mz|chi|trap_id
127	 1	 180.0	 80.0	 0.001	 10.3	 5.791406870113643e-05	 0.0	 0	 0	 0	 0.0576	 127 #atom id|type|x0|y0|z0|d|rho|m|mx|my|mz|chi|trap_id
128	 1	 210.0	 80.0	 0.001	 10.3	 5.791406870113643e-05	 0.0	 0	 0	 0	 0.0576	 128 #atom id|type|x0|y0|z0|d|rho|m|mx|my|mz|chi|trap_id
129	 1	 240.0	 80.0	 0.001	 10.3	 5.791406870113643e-05	 0.0	 0	 0	 0	 0.0576	 129 #atom id|type|x0|y0|z0|d|rho|m|mx|my|mz|chi|trap_id
130	 1	 270.0	 80.0	 0.001	 10.3	 5.791406870113643e-05	 0.0	 0	 0	 0	 0.0576	 130 #atom id|type|x0|y0|z0|d|rho|m|mx|my|mz|chi|trap_id
131	 1	 0.0	 110.0	 0.001	 10.3	 5.791406870113643e-05	 0.0	 0	 0	 0	 0.0576	 131 #atom id|type|x0|y0|z0|d|rho|m|mx|my|mz|chi|trap_id
132	 1	 30.0	 110.0	 0.001	 10.3	 5.791406870113643e-05	 0.0	 0	 0	 0	 0.0576	 132 #atom id|type|x0|y0|z0|d|rho|m|mx|my|mz|chi|trap_id
133	 1	 60.0	 110.0	 0.001	 10.3	 5.791406870113643e-05	 0.0	 0	 0	 0	 0.0576	 133 #atom id|type|x0|y0|z0|d|rho|m|mx|my|mz|chi|trap_id
134	 1	 90.0	 110.0	 0.001	 10.3	 5.791406870113643e-05	 0.0	 0	 0	 0	 0.0576	 134 #atom id|type|x0|y0|z0|d|rho|m|mx|my|mz|chi|trap_id
135	 1	 120.0	 110.0	 0.001	 10.3	 5.791406870113643e-05	 0.0	 0	 0	 0	 0.0576	 135 #atom id|type|x0|y0|z0|d|rho|m|mx|my|mz|chi|trap_id
136	 1	 150.0	 110.0	 0.001	 10.3	 5.791406870113643e-05	 0.0	 0	 0	 0	 0.0576	 136 #atom id|type|x0|y0|z0|d|rho|m|mx|my|mz|chi|trap_id
137	 1	 180.0	 110.0	 0.001	 10.3	 5.791406870113643e-05	 0.0	 0	 0	 0	 0.0576	 137 #atom id|type|x0|y0|z0|d|rho|m|mx|my|mz|chi|trap_id
138	 1	 210.0	 110.0	 0.001	 10.3	 5.791406870113643e-05	 0.0	 0	 0	 0	 0.0576	 138 #atom id|type|x0|y0|z0|d|rho|m|mx|my|mz|chi|trap_id
139	 1	 240.0	 110.0	 0.001	 10.3	 5.791406870113643e-05	 0.0	 0	 0	 0	 0.0576	 139 #atom id|type|x0|y0|z0|d|rho|m|mx|my|mz|chi|trap_id
140	 1	 270.0	 110.0	 0.001	 10.3	 5.791406870113643e-05	 0.0	 0	 0	 0	 0.0576	 140 #atom id|type|x0|y0|z0|d|rho|m|mx|my|mz|chi|trap_id
141	 1	 0.0	 140.0	 0.001	 10.3	 5.791406870113643e-05	 0.0	 0	 0	 0	 0.0576	 141 #atom id|type|x0|y0|z0|d|rho|m|mx|my|mz|chi|trap_id
142	 1	 30.0	 140.0	 0.001	 10.3	 5.791406870113643e-05	 0.0	 0	 0	 0	 0.0576	 142 #atom id|type|x0|y0|z0|d|rho|m|mx|my|mz|chi|trap_id
143	 1	 60.0	 140.0	 0.001	 10.3	 5.791406870113643e-05	 0.0	 0	 0	 0	 0.0576	 143 #atom id|type|x0|y0|z0|d|rho|m|mx|my|mz|chi|trap_id
144	 1	 90.0	 140.0	 0.001	 10.3	 5.791406870113643e-05	 0.0	 0	 0	 0	 0.0576	 144 #atom id|type|x0|y0|z0|d|rho|m|mx|my|mz|chi|trap_id
145	 1	 120.0	 140.0	 0.001	 10.3	 5.791406870113643e-05	 0.0	 0	 0	 0	 0.0576	 145 #atom id|type|x0|y0|z0|d|rho|m|mx|my|mz|chi|trap_id
146	 1	 150.0	 140.0	 0.001	 10.3	 5.791406870113643e-05	 0.0	 0	 0	 0	 0.0576	 146 #atom id|type|x0|y0|z0|d|rho|m|mx|my|mz|chi|trap_id
147	 1	 180.0	 140.0	 0.001	 10.3	 5.791406870113643e-05	 0.0	 0	 0	 0	 0.0576	 147 #atom id|type|x0|y0|z0|d|rho|m|mx|my|mz|chi|trap_id
148	 1	 210.0	 140.0	 0.001	 10.3	 5.791406870113643e-05	 0.0	 0	 0	 0	 0.0576	 148 #atom id|type|x0|y0|z0|d|rho|m|mx|my|mz|chi|trap_id
149	 1	 240.0	 140.0	 0.001	 10.3	 5.791406870113643e-05	 0.0	 0	 0	 0	 0.0576	 149 #atom id|type|x0|y0|z0|d|rho|m|mx|my|mz|chi|trap_id
150	 1	 270.0	 140.0	 0.001	 10.3	 5.791406870113643e-05	 0.0	 0	 0	 0	 0.0576	 150 #atom id|type|x0|y0|z0|d|rho|m|mx|my|mz|chi|trap_id
151	 1	 0.0	 170.0	 0.001	 10.3	 5.791406870113643e-05	 0.0	 0	 0	 0	 0.0576	 151 #atom id|type|x0|y0|z0|d|rho|m|mx|my|mz|chi|trap_id
152	 1	 30.0	 170.0	 0.001	 10.3	 5.791406870113643e-05	 0.0	 0	 0	 0	 0.0576	 152 #atom id|type|x0|y0|z0|d|rho|m|mx|my|mz|chi|trap_id
153	 1	 60.0	 170.0	 0.001	 10.3	 5.791406870113643e-05	 0.0	 0	 0	 0	 0.0576	 153 #atom id|type|x0|y0|z0|d|rho|m|mx|my|mz|chi|trap_id
154	 1	 90.0	 170.0	 0.001	 10.3	 5.791406870113643e-05	 0.0	 0	 0	 0	 0.0576	 154 #atom id|type|x0|y0|z0|d|rho|m|mx|my|mz|chi|trap_id
155	 1	 120.0	 170.0	 0.001	 10.3	 5.791406870113643e-05	 0.0	 0	 0	 0	 0.0576	 155 #atom id|type|x0|y0|z0|d|rho|m|mx|my|mz|chi|trap_id
156	 1	 150.0	 170.0	 0.001	 10.3	 5.791406870113643e-05	 0.0	 0	 0	 0	 0.0576	 156 #atom id|type|x0|y0|z0|d|rho|m|mx|my|mz|chi|trap_id
157	 1	 180.0	 170.0	 0.001	 10.3	 5.791406870113643e-05	 0.0	 0	 0	 0	 0.0576	 157 #atom id|type|x0|y0|z0|d|rho|m|mx|my|mz|chi|trap_id
158	 1	 210.0	 170.0	 0.001	 10.3	 5.791406870113643e-05	 0.0	 0	 0	 0	 0.0576	 158 #atom id|type|x0|y0|z0|d|rho|m|mx|my|mz|chi|trap_id
159	 1	 240.0	 170.0	 0.001	 10.3	 5.791406870113643e-05	 0.0	 0	 0	 0	 0.0576	 159 #atom id|type|x0|y0|z0|d|rho|m|mx|my|mz|chi|trap_id
160	 1	 270.0	 170.0	 0.001	 10.3	 5.791406870113643e-05	 0.0	 0	 0	 0	 0.0576	 160 #atom id|type|x0|y0|z0|d|rho|m|mx|my|mz|chi|trap_id
161	 1	 0.0	 200.0	 0.001	 10.3	 5.791406870113643e-05	 0.0	 0	 0	 0	 0.0576	 161 #atom id|type|x0|y0|z0|d|rho|m|mx|my|mz|chi|trap_id
162	 1	 30.0	 200.0	 0.001	 10.3	 5.791406870113643e-05	 0.0	 0	 0	 0	 0.0576	 162 #atom id|type|x0|y0|z0|d|rho|m|mx|my|mz|chi|trap_id
163	 1	 60.0	 200.0	 0.001	 10.3	 5.791406870113643e-05	 0.0	 0	 0	 0	 0.0576	 163 #atom id|type|x0|y0|z0|d|rho|m|mx|my|mz|chi|trap_id
164	 1	 90.0	 200.0	 0.001	 10.3	 5.791406870113643e-05	 0.0	 0	 0	 0	 0.0576	 164 #atom id|type|x0|y0|z0|d|rho|m|mx|my|mz|chi|trap_id
165	 1	 120.0	 200.0	 0.001	 10.3	 5.791406870113643e-05	 0.0	 0	 0	 0	 0.0576	 165 #atom id|type|x0|y0|z0|d|rho|m|mx|my|mz|chi|trap_id
166	 1	 150.0	 200.0	 0.001	 10.3	 5.791406870113643e-05	 0.0	 0	 0	 0	 0.0576	 166 #atom id|type|x0|y0|z0|d|rho|m|mx|my|mz|chi|trap_id
167	 1	 180.0	 200.0	 0.001	 10.3	 5.791406870113643e-05	 0.0	 0	 0	 0	 0.0576	 167 #atom id|type|x0|y0|z0|d|rho|m|mx|my|mz|chi|trap_id
168	 1	 210.0	 200.0	 0.001	 10.3	 5.791406870113643e-05	 0.0	 0	 0	 0	 0.0576	 168 #atom id|type|x0|y0|z0|d|rho|m|mx|my|mz|chi|trap_id
169	 1	 240.0	 200.0	 0.001	 10.3	 5.791406870113643e-05	 0.0	 0	 0	 0	 0.0576	 169 #atom id|type|x0|y0|z0|d|rho|m|mx|my|mz|chi|trap_id
170	 1	 270.0	 200.0	 0.001	 10.3	 5.791406870113643e-05	 0.0	 0	 0	 0	 0.0576	 170 #atom id|type|x0|y0|z0|d|rho|m|mx|my|mz|chi|trap_id
171	 1	 0.0	 230.0	 0.001	 10.3	 5.791406870113643e-05	 0.0	 0	 0	 0	 0.0576	 171 #atom id|type|x0|y0|z0|d|rho|m|mx|my|mz|chi|trap_id
172	 1	 30.0	 230.0	 0.001	 10.3	 5.791406870113643e-05	 0.0	 0	 0	 0	 0.0576	 172 #atom id|type|x0|y0|z0|d|rho|m|mx|my|mz|chi|trap_id
173	 1	 60.0	 230.0	 0.001	 10.3	 5.791406870113643e-05	 0.0	 0	 0	 0	 0.0576	 173 #atom id|type|x0|y0|z0|d|rho|m|mx|my|mz|chi|trap_id
174	 1	 90.0	 230.0	 0.001	 10.3	 5.791406870113643e-05	 0.0	 0	 0	 0	 0.0576	 174 #atom id|type|x0|y0|z0|d|rho|m|mx|my|mz|chi|trap_id
175	 1	 120.0	 230.0	 0.001	 10.3	 5.791406870113643e-05	 0.0	 0	 0	 0	 0.0576	 175 #atom id|type|x0|y0|z0|d|rho|m|mx|my|mz|chi|trap_id
176	 1	 150.0	 230.0	 0.001	 10.3	 5.791406870113643e-05	 0.0	 0	 0	 0	 0.0576	 176 #atom id|type|x0|y0|z0|d|rho|m|mx|my|mz|chi|trap_id
177	 1	 180.0	 230.0	 0.001	 10.3	 5.791406870113643e-05	 0.0	 0	 0	 0	 0.0576	 177 #atom id|type|x0|y0|z0|d|rho|m|mx|my|mz|chi|trap_id
178	 1	 210.0	 230.0	 0.001	 10.3	 5.791406870113643e-05	 0.0	 0	 0	 0	 0.0576	 178 #atom id|type|x0|y0|z0|d|rho|m|mx|my|mz|chi|trap_id
179	 1	 240.0	 230.0	 0.001	 10.3	 5.791406870113643e-05	 0.0	 0	 0	 0	 0.0576	 179 #atom id|type|x0|y0|z0|d|rho|m|mx|my|mz|chi|trap_id
180	 1	 270.0	 230.0	 0.001	 10.3	 5.791406870113643e-05	 0.0	 0	 0	 0	 0.0576	 180 #atom id|type|x0|y0|z0|d|rho|m|mx|my|mz|chi|trap_id
181	 1	 0.0	 260.0	 0.001	 10.3	 5.791406870113643e-05	 0.0	 0	 0	 0	 0.0576	 181 #atom id|type|x0|y0|z0|d|rho|m|mx|my|mz|chi|trap_id
182	 1	 30.0	 260.0	 0.001	 10.3	 5.791406870113643e-05	 0.0	 0	 0	 0	 0.0576	 182 #atom id|type|x0|y0|z0|d|rho|m|mx|my|mz|chi|trap_id
183	 1	 60.0	 260.0	 0.001	 10.3	 5.791406870113643e-05	 0.0	 0	 0	 0	 0.0576	 183 #atom id|type|x0|y0|z0|d|rho|m|mx|my|mz|chi|trap_id
184	 1	 90.0	 260.0	 0.001	 10.3	 5.791406870113643e-05	 0.0	 0	 0	 0	 0.0576	 184 #atom id|type|x0|y0|z0|d|rho|m|mx|my|mz|chi|trap_id
185	 1	 120.0	 260.0	 0.001	 10.3	 5.791406870113643e-05	 0.0	 0	 0	 0	 0.0576	 185 #atom id|type|x0|y0|z0|d|rho|m|mx|my|mz|chi|trap_id
186	 1	 150.0	 260.0	 0.001	 10.3	 5.791406870113643e-05	 0.0	 0	 0	 0	 0.0576	 186 #atom id|type|x0|y0|z0|d|rho|m|mx|my|mz|chi|trap_id
187	 1	 180.0	 260.0	 0.001	 10.3	 5.791406870113643e-05	 0.0	 0	 0	 0	 0.0576	 187 #atom id|type|x0|y0|z0|d|rho|m|mx|my|mz|chi|trap_id
188	 1	 210.0	 260.0	 0.001	 10.3	 5.791406870113643e-05	 0.0	 0	 0	 0	 0.0576	 188 #atom id|type|x0|y0|z0|d|rho|m|mx|my|mz|chi|trap_id
189	 1	 240.0	 260.0	 0.001	 10.3	 5.791406870113643e-05	 0.0	 0	 0	 0	 0.0576	 189 #atom id|type|x0|y0|z0|d|rho|m|mx|my|mz|chi|trap_id
190	 1	 270.0	 260.0	 0.001	 10.3	 5.791406870113643e-05	 0.0	 0	 0	 0	 0.0576	 190 #atom id|type|x0|y0|z0|d|rho|m|mx|my|mz|chi|trap_id
191	 1	 0.0	 290.0	 0.001	 10.3	 5.791406870113643e-05	 0.0	 0	 0	 0	 0.0576	 191 #atom id|type|x0|y0|z0|d|rho|m|mx|my|mz|chi|trap_id
192	 1	 30.0	 290.0	 0.001	 10.3	 5.791406870113643e-05	 0.0	 0	 0	 0	 0.0576	 192 #atom id|type|x0|y0|z0|d|rho|m|mx|my|mz|chi|trap_id
193	 1	 60.0	 290.0	 0.001	 10.3	 5.791406870113643e-05	 0.0	 0	 0	 0	 0.0576	 193 #atom id|type|x0|y0|z0|d|rho|m|mx|my|mz|chi|trap_id
194	 1	 90.0	 290.0	 0.001	 10.3	 5.791406870113643e-05	 0.0	 0	 0	 0	 0.0576	 194 #atom id|type|x0|y0|z0|d|rho|m|mx|my|mz|chi|trap_id
195	 1	 120.0	 290.0	 0.001	 10.3	 5.791406870113643e-05	 0.0	 0	 0	 0	 0.0576	 195 #atom id|type|x0|y0|z0|d|rho|m|mx|my|mz|chi|trap_id
196	 1	 150.0	 290.0	 0.001	 10.3	 5.791406870113643e-05	 0.0	 0	 0	 0	 0.0576	 196 #atom id|type|x0|y0|z0|d|rho|m|mx|my|mz|chi|trap_id
197	 1	 180.0	 290.0	 0.001	 10.3	 5.791406870113643e-05	 0.0	 0	 0	 0	 0.0576	 197 #atom id|type|x0|y0|z0|d|rho|m|mx|my|mz|chi|trap_id
198	 1	 210.0	 290.0	 0.001	 10.3	 5.791406870113643e-05	 0.0	 0	 0	 0	 0.0576	 198 #atom id|type|x0|y0|z0|d|rho|m|mx|my|mz|chi|trap_id
199	 1	 240.0	 290.0	 0.001	 10.3	 5.791406870113643e-05	 0.0	 0	 0	 0	 0.0576	 199 #atom id|type|x0|y0|z0|d|rho|m|mx|my|mz|chi|trap_id
200	 1	 270.0	 290.0	 0.001	 10.3	 5.791406870113643e-05	 0.0	 0	 0	 0	 0.0576	 200 #atom id|type|x0|y0|z0|d|rho|m|mx|my|mz|chi|trap_id
201	 1	 300.0	 20.0	 0.001	 10.3	 5.791406870113643e-05	 0.0	 0	 0	 0	 0.0576	 201 #atom id|type|x0|y0|z0|d|rho|m|mx|my|mz|chi|trap_id
202	 1	 300.0	 50.0	 0.001	 10.3	 5.791406870113643e-05	 0.0	 0	 0	 0	 0.0576	 202 #atom id|type|x0|y0|z0|d|rho|m|mx|my|mz|chi|trap_id
203	 1	 300.0	 80.0	 0.001	 10.3	 5.791406870113643e-05	 0.0	 0	 0	 0	 0.0576	 203 #atom id|type|x0|y0|z0|d|rho|m|mx|my|mz|chi|trap_id
204	 1	 300.0	 110.0	 0.001	 10.3	 5.791406870113643e-05	 0.0	 0	 0	 0	 0.0576	 204 #atom id|type|x0|y0|z0|d|rho|m|mx|my|mz|chi|trap_id
205	 1	 300.0	 140.0	 0.001	 10.3	 5.791406870113643e-05	 0.0	 0	 0	 0	 0.0576	 205 #atom id|type|x0|y0|z0|d|rho|m|mx|my|mz|chi|trap_id
206	 1	 300.0	 170.0	 0.001	 10.3	 5.791406870113643e-05	 0.0	 0	 0	 0	 0.0576	 206 #atom id|type|x0|y0|z0|d|rho|m|mx|my|mz|chi|trap_id
207	 1	 300.0	 200.0	 0.001	 10.3	 5.791406870113643e-05	 0.0	 0	 0	 0	 0.0576	 207 #atom id|type|x0|y0|z0|d|rho|m|mx|my|mz|chi|trap_id
208	 1	 300.0	 230.0	 0.001	 10.3	 5.791406870113643e-05	 0.0	 0	 0	 0	 0.0576	 208 #atom id|type|x0|y0|z0|d|rho|m|mx|my|mz|chi|trap_id
209	 1	 300.0	 260.0	 0.001	 10.3	 5.791406870113643e-05	 0.0	 0	 0	 0	 0.0576	 209 #atom id|type|x0|y0|z0|d|rho|m|mx|my|mz|chi|trap_id
210	 1	 300.0	 290.0	 0.001	 10.3	 5.791406870113643e-05	 0.0	 0	 0	 0	 0.0576	 210 #atom id|type|x0|y0|z0|d|rho|m|mx|my|mz|chi|trap_id
211	 1	 20.0	 300.0	 0.001	 10.3	 5.791406870113643e-05	 0.0	 0	 0	 0	 0.0576	 211 #atom id|type|x0|y0|z0|d|rho|m|mx|my|mz|chi|trap_id
212	 1	 50.0	 300.0	 0.001	 10.3	 5.791406870113643e-05	 0.0	 0	 0	 0	 0.0576	 212 #atom id|type|x0|y0|z0|d|rho|m|mx|my|mz|chi|trap_id
213	 1	 80.0	 300.0	 0.001	 10.3	 5.791406870113643e-05	 0.0	 0	 0	 0	 0.0576	 213 #atom id|type|x0|y0|z0|d|rho|m|mx|my|mz|chi|trap_id
214	 1	 110.0	 300.0	 0.001	 10.3	 5.791406870113643e-05	 0.0	 0	 0	 0	 0.0576	 214 #atom id|type|x0|y0|z0|d|rho|m|mx|my|mz|chi|trap_id
215	 1	 140.0	 300.0	 0.001	 10.3	 5.791406870113643e-05	 0.0	 0	 0	 0	 0.0576	 215 #atom id|type|x0|y0|z0|d|rho|m|mx|my|mz|chi|trap_id
216	 1	 170.0	 300.0	 0.001	 10.3	 5.791406870113643e-05	 0.0	 0	 0	 0	 0.0576	 216 #atom id|type|x0|y0|z0|d|rho|m|mx|my|mz|chi|trap_id
217	 1	 200.0	 300.0	 0.001	 10.3	 5.791406870113643e-05	 0.0	 0	 0	 0	 0.0576	 217 #atom id|type|x0|y0|z0|d|rho|m|mx|my|mz|chi|trap_id
218	 1	 230.0	 300.0	 0.001	 10.3	 5.791406870113643e-05	 0.0	 0	 0	 0	 0.0576	 218 #atom id|type|x0|y0|z0|d|rho|m|mx|my|mz|chi|trap_id
219	 1	 260.0	 300.0	 0.001	 10.3	 5.791406870113643e-05	 0.0	 0	 0	 0	 0.0576	 219 #atom id|type|x0|y0|z0|d|rho|m|mx|my|mz|chi|trap_id
220	 1	 290.0	 300.0	 0.001	 10.3	 5.791406870113643e-05	 0.0	 0	 0	 0	 0.0576	 220 #atom id|type|x0|y0|z0|d|rho|m|mx|my|mz|chi|trap_id
221	 2	 15.0	 0.0	 0.0	 1	 1	 0	 10.0	 0.0	 0.0	 0	 1 #trap id|type|x0|y0|z0|1|1|0|dx|dy|dz|0|atom_id
222	 2	 45.0	 0.0	 0.0	 1	 1	 0	 10.0	 0.0	 0.0	 0	 2 #trap id|type|x0|y0|z0|1|1|0|dx|dy|dz|0|atom_id