ITEM: TIMESTEP
0
ITEM: NUMBER OF ATOMS
440
ITEM: BOX BOUNDS ss ss pp
-3.6000000000000004e-02 3.0003600000000000e+02
-3.6000000000000004e-02 3.0003600000000000e+02
-2.0000000000000000e-02 2.0000000000000000e-02
ITEM: ATOMS id type x y z mux muy muz 
1 1 20 0 0 0 0 0.000877105 
2 1 50 0 0 0 0 0.000877105 
3 1 80 0 0 0 0 0.000877105 
4 1 110 0 0 0 0 0.000877105 
5 1 140 0 0 0 0 0.000877105 
11 1 20 30 0 0 0 0.000877105 
12 1 50 30 0 0 0 0.000877105 
13 1 80 30 0 0 0 0.000877105 
14 1 110 30 0 0 0 0.000877105 
15 1 140 30 0 0 0 0.000877105 
21 1 20 60 0 0 0 0.000877105 
22 1 50 60 0 0 0 0.000877105 
23 1 80 60 0 0 0 0.000877105 
24 1 110 60 0 0 0 0.000877105 
25 1 140 60 0 0 0 0.000877105 
31 1 20 90 0 0 0 0.000877105 
32 1 50 90 0 0 0 0.000877105 
33 1 80 90 0 0 0 0.000877105 
34 1 110 90 0 0 0 0.000877105 
35 1 140 90 0 0 0 0.000877105 
41 1 20 120 0 0 0 0.000877105 
42 1 50 120 0 0 0 0.000877105 
43 1 80 120 0 0 0 0.000877105 
44 1 110 120 0 0 0 0.000877105 
45 1 140 120 0 0 0 0.000877105 
51 1 20 150 0 0 0 0.000877105 
52 1 50 150 0 0 0 0.000877105 
53 1 80 150 0 0 0 0.000877105 
54 1 110 150 0 0 0 0.000877105 
55 1 140 150 0 0 0 0.000877105 
101 1 0 20 0 0 0 0.000877105 
102 1 30 20 0 0 0 0.000877105 
103 1 60 20 0 0 0 0.000877105 
104 1 90 20 0 0 0 0.000877105 
105 1 120 20 0 0 0 0.000877105 
106 1 150 20 0 0 0 0.000877105 
111 1 0 50 0 0 0 0.000877105 
112 1 30 50 0 0 0 0.000877105 
113 1 60 50 0 0 0 0.000877105 
114 1 90 50 0 0 0 0.000877105 
115 1 120 50 0 0 0 0.000877105 
116 1 150 50 0 0 0 0.000877105 
121 1 0 80 0 0 0 0.000877105 
122 1 30 80 0 0 0 0.000877105 
123 1 60 80 0 0 0 0.000877105 
124 1 90 80 0 0 0 0.000877105 
125 1 120 80 0 0 0 0.000877105 
126 1 150 80 0 0 0 0.000877105 
131 1 0 110 0 0 0 0.000877105 
132 1 30 110 0 0 0 0.000877105 
133 1 60 110 0 0 0 0.000877105 
134 1 90 110 0 0 0 0.000877105 
135 1 120 110 0 0 0 0.000877105 
136 1 150 110 0 0 0 0.000877105 
141 1 0 140 0 0 0 0.000877105 
142 1 30 140 0 0 0 0.000877105 
143 1 60 140 0 0 0 0.000877105 
144 1 90 140 0 0 0 0.000877105 
145 1 120 140 0 0 0 0.000877105 
146 1 150 140 0 0 0 0.000877105 
221 2 15 0 0 10 0 0 
222 2 45 0 0 10 0 0 
223 2 75 0 0 10 0 0 
224 2 105 0 0 10 0 0 
225 2 135 0 0 10 0 0 
231 2 15 30 0 10 0 0 
232 2 45 30 0 10 0 0 
233 2 75 30 0 10 0 0 
234 2 105 30 0 10 0 0 
235 2 135 30 0 10 0 0 
241 2 15 60 0 10 0 0 
242 2 45 60 0 10 0 0 
243 2 75 60 0 10 0 0 
244 2 105 60 0 10 0 0 
245 2 135 60 0 10 0 0 
251 2 15 90 0 10 0 0 
252 2 45 90 0 10 0 0 
253 2 75 90 0 10 0 0 
254 2 105 90 0 10 0 0 
255 2 135 90 0 10 0 0 
261 2 15 120 0 10 0 0 
262 2 45 120 0 10 0 0 
263 2 75 120 0 10 0 0 
264 2 105 120 0 10 0 0 
265 2 135 120 0 10 0 0 
271 2 15 150 0 10 0 0 
272 2 45 150 0 10 0 0 
273 2 75 150 0 10 0 0 
274 2 105 150 0 10 0 0 
275 2 135 150 0 10 0 0 
321 2 0 15 0 0 10 0 
322 2 30 15 0 0 10 0 
323 2 60 15 0 0 10 0 
324 2 90 15 0 0 10 0 
325 2 120 15 0 0 10 0 
326 2 150 15 0 0 10 0 
331 2 0 45 0 0 10 0 
332 2 30 45 0 0 10 0 
333 2 60 45 0 0 10 0 
334 2 90 45 0 0 10 0 
335 2 120 45 0 0 10 0 
336 2 150 45 0 0 10 0 
341 2 0 75 0 0 10 0 
342 2 30 75 0 0 10 0 
343 2 60 75 0 0 10 0 
344 2 90 75 0 0 10 0 
345 2 120 75 0 0 10 0 
346 2 150 75 0 0 10 0 
351 2 0 105 0 0 10 0 
352 2 30 105 0 0 10 0 
353 2 60 105 0 0 10 0 
354 2 90 105 0 0 10 0 
355 2 120 105 0 0 10 0 
356 2 150 105 0 0 10 0 
361 2 0 135 0 0 10 0 
362 2 30 135 0 0 10 0 
363 2 60 135 0 0 10 0 
364 2 90 135 0 0 10 0 
365 2 120 135 0 0 10 0 
366 2 150 135 0 0 10 0 
6 1 170 0 0 0 0 0.000877105 
7 1 200 0 0 0 0 0.000877105 
8 1 230 0 0 0 0 0.000877105 
9 1 260 0 0 0 0 0.000877105 
10 1 290 0 0 0 0 0.000877105 
16 1 170 30 0 0 0 0.000877105 
17 1 200 30 0 0 0 0.000877105 
18 1 230 30 0 0 0 0.000877105 
19 1 260 30 0 0 0 0.000877105 
20 1 290 30 0 0 0 0.000877105 
26 1 170 60 0 0 0 0.000877105 
27 1 200 60 0 0 0 0.000877105 
28 1 230 60 0 0 0 0.000877105 
29 1 260 60 0 0 0 0.000877105 
30 1 290 60 0 0 0 0.000877105 
36 1 170 90 0 0 0 0.000877105 
37 1 200 90 0 0 0 0.000877105 
38 1 230 90 0 0 0 0.000877105 
39 1 260 90 0 0 0 0.000877105 
40 1 290 90 0 0 0 0.000877105 
46 1 170 120 0 0 0 0.000877105 
47 1 200 120 0 0 0 0.000877105 
48 1 230 120 0 0 0 0.000877105 
49 1 260 120 0 0 0 0.000877105 
50 1 290 120 0 0 0 0.000877105 
56 1 170 150 0 0 0 0.000877105 
57 1 200 150 0 0 0 0.000877105 
58 1 230 150 0 0 0 0.000877105 
59 1 260 150 0 0 0 0.000877105 
60 1 290 150 0 0 0 0.000877105 
107 1 180 20 0 0 0 0.000877105 
108 1 210 20 0 0 0 0.000877105 
109 1 240 20 0 0 0 0.000877105 
110 1 270 20 0 0 0 0.000877105 
117 1 180 50 0 0 0 0.000877105 
118 1 210 50 0 0 0 0.000877105 
119 1 240 50 0 0 0 0.000877105 
120 1 270 50 0 0 0 0.000877105 
127 1 180 80 0 0 0 0.000877105 
128 1 210 80 0 0 0 0.000877105 
129 1 240 80 0 0 0 0.000877105 
130 1 270 80 0 0 0 0.000877105 
137 1 180 110 0 0 0 0.000877105 
138 1 210 110 0 0 0 0.000877105 
139 1 240 110 0 0 0 0.000877105 
140 1 270 110 0 0 0 0.000877105 
147 1 180 140 0 0 0 0.000877105 
148 1 210 140 0 0 0 0.000877105 
149 1 240 140 0 0 0 0.000877105 
150 1 270 140 0 0 0 0.000877105 
201 1 300 20 0 0 0 0.000877105 
202 1 300 50 0 0 0 0.000877105 
203 1 300 80 0 0 0 0.000877105 
204 1 300 110 0 0 0 0.000877105 
205 1 300 140 0 0 0 0.000877105 
226 2 165 0 0 10 0 0 
227 2 195 0 0 10 0 0 
228 2 225 0 0 10 0 0 
229 2 255 0 0 10 0 0 
230 2 285 0 0 10 0 0 
236 2 165 30 0 10 0 0 
237 2 195 30 0 10 0 0 
238 2 225 30 0 10 0 0 
239 2 255 30 0 10 0 0 
240 2 285 30 0 10 0 0 
246 2 165 60 0 10 0 0 
247 2 195 60 0 10 0 0 
248 2 225 60 0 10 0 0 
249 2 255 60 0 10 0 0 
250 2 285 60 0 10 0 0 
256 2 165 90 0 10 0 0 
257 2 195 90 0 10 0 0 
258 2 225 90 0 10 0 0 
259 2 255 90 0 10 0 0 
260 2 285 90 0 10 0 0 
266 2 165 120 0 10 0 0 
267 2 195 120 0 10 0 0 
268 2 225 120 0 10 0 0 
269 2 255 120 0 10 0 0 
270 2 285 120 0 10 0 0 
276 2 165 150 0 10 0 0 
277 2 195 150 0 10 0 0 
278 2 225 150 0 10 0 0 
279 2 255 150 0 10 0 0 
280 2 285 150 0 10 0 0 
327 2 180 15 0 0 10 0 
328 2 210 15 0 0 10 0 
329 2 240 15 0 0 10 0 
330 2 270 15 0 0 10 0 
337 2 180 45 0 0 10 0 
338 2 210 45 0 0 10 0 
339 2 240 45 0 0 10 0 
340 2 270 45 0 0 10 0 
347 2 180 75 0 0 10 0 
348 2 210 75 0 0 10 0 
349 2 240 75 0 0 10 0 
350 2 270 75 0 0 10 0 
357 2 180 105 0 0 10 0 
358 2 210 105 0 0 10 0 
359 2 240 105 0 0 10 0 
360 2 270 105 0 0 10 0 
367 2 180 135 0 0 10 0 
368 2 210 135 0 0 10 0 
369 2 240 135 0 0 10 0 
370 2 270 135 0 0 10 0 
421 2 300 15 0 0 10 0 
422 2 300 45 0 0 10 0 
423 2 300 75 0 0 10 0 
424 2 300 105 0 0 10 0 
425 2 300 135 0 0 10 0 
61 1 20 180 0 0 0 0.000877105 
62 1 50 180 0 0 0 0.000877105 
63 1 80 180 0 0 0 0.000877105 
64 1 110 180 0 0 0 0.000877105 
65 1 140 180 0 0 0 0.000877105 
71 1 20 210 0 0 0 0.000877105 
72 1 50 210 0 0 0 0.000877105 
73 1 80 210 0 0 0 0.000877105 
74 1 110 210 0 0 0 0.000877105 
75 1 140 210 0 0 0 0.000877105 
81 1 20 240 0 0 0 0.000877105 
82 1 50 240 0 0 0 0.000877105 
83 1 80 240 0 0 0 0.000877105 
84 1 110 240 0 0 0 0.000877105 
85 1 140 240 0 0 0 0.000877105 
91 1 20 270 0 0 0 0.000877105 
92 1 50 270 0 0 0 0.000877105 
93 1 80 270 0 0 0 0.000877105 
94 1 110 270 0 0 0 0.000877105 
95 1 140 270 0 0 0 0.000877105 
151 1 0 170 0 0 0 0.000877105 
152 1 30 170 0 0 0 0.000877105 
153 1 60 170 0 0 0 0.000877105 
154 1 90 170 0 0 0 0.000877105 
155 1 120 170 0 0 0 0.000877105 
156 1 150 170 0 0 0 0.000877105 
161 1 0 200 0 0 0 0.000877105 
162 1 30 200 0 0 0 0.000877105 
163 1 60 200 0 0 0 0.000877105 
164 1 90 200 0 0 0 0.000877105 
165 1 120 200 0 0 0 0.000877105 
166 1 150 200 0 0 0 0.000877105 
171 1 0 230 0 0 0 0.000877105 
172 1 30 230 0 0 0 0.000877105 
173 1 60 230 0 0 0 0.000877105 
174 1 90 230 0 0 0 0.000877105 
175 1 120 230 0 0 0 0.000877105 
176 1 150 230 0 0 0 0.000877105 
181 1 0 260 0 0 0 0.000877105 
182 1 30 260 0 0 0 0.000877105 
183 1 60 260 0 0 0 0.000877105 
184 1 90 260 0 0 0 0.000877105 
185 1 120 260 0 0 0 0.000877105 
186 1 150 260 0 0 0 0.000877105 
191 1 0 290 0 0 0 0.000877105 
192 1 30 290 0 0 0 0.000877105 
193 1 60 290 0 0 0 0.000877105 
194 1 90 290 0 0 0 0.000877105 
195 1 120 290 0 0 0 0.000877105 
196 1 150 290 0 0 0 0.000877105 
211 1 20 300 0 0 0 0.000877105 
212 1 50 300 0 0 0 0.000877105 
213 1 80 300 0 0 0 0.000877105 
214 1 110 300 0 0 0 0.000877105 
215 1 140 300 0 0 0 0.000877105 
281 2 15 180 0 10 0 0 
282 2 45 180 0 10 0 0 
283 2 75 180 0 10 0 0 
284 2 105 180 0 10 0 0 
285 2 135 180 0 10 0 0 
291 2 15 210 0 10 0 0 
292 2 45 210 0 10 0 0 
293 2 75 210 0 10 0 0 
294 2 105 210 0 10 0 0 
295 2 135 210 0 10 0 0 
301 2 15 240 0 10 0 0 
302 2 45 240 0 10 0 0 
303 2 75 240 0 10 0 0 
304 2 105 240 0 10 0 0 
305 2 135 240 0 10 0 0 
311 2 15 270 0 10 0 0 
312 2 45 270 0 10 0 0 
313 2 75 270 0 10 0 0 
314 2 105 270 0 10 0 0 
315 2 135 270 0 10 0 0 
371 2 0 165 0 0 10 0 
372 2 30 165 0 0 10 0 
373 2 60 165 0 0 10 0 
374 2 90 165 0 0 10 0 
375 2 120 165 0 0 10 0 
376 2 150 165 0 0 10 0 
381 2 0 195 0 0 10 0 
382 2 30 195 0 0 10 0 
383 2 60 195 0 0 10 0 
384 2 90 195 0 0 10 0 
385 2 120 195 0 0 10 0 
386 2 150 195 0 0 10 0 
391 2 0 225 0 0 10 0 
392 2 30 225 0 0 10 0 
393 2 60 225 0 0 10 0 
394 2 90 225 0 0 10 0 
395 2 120 225 0 0 10 0 
396 2 150 225 0 0 10 0 
401 2 0 255 0 0 10 0 
402 2 30 255 0 0 10 0 
403 2 60 255 0 0 10 0 
404 2 90 255 0 0 10 0 
405 2 120 255 0 0 10 0 
406 2 150 255 0 0 10 0 
411 2 0 285 0 0 10 0 
412 2 30 285 0 0 10 0 
413 2 60 285 0 0 10 0 
414 2 90 285 0 0 10 0 
415 2 120 285 0 0 10 0 
416 2 150 285 0 0 10 0 
431 2 15 300 0 10 0 0 
432 2 45 300 0 10 0 0 
433 2 75 300 0 10 0 0 
434 2 105 300 0 10 0 0 
435 2 135 300 0 10 0 0 
66 1 170 180 0 0 0 0.000877105 
67 1 200 180 0 0 0 0.000877105 
68 1 230 180 0 0 0 0.000877105 
69 1 260 180 0 0 0 0.000877105 
70 1 290 180 0 0 0 0.000877105 
76 1 170 210 0 0 0 0.000877105 
77 1 200 210 0 0 0 0.000877105 
78 1 230 210 0 0 0 0.000877105 
79 1 260 210 0 0 0 0.000877105 
80 1 290 210 0 0 0 0.000877105 
86 1 170 240 0 0 0 0.000877105 
87 1 200 240 0 0 0 0.000877105 
88 1 230 240 0 0 0 0.000877105 
89 1 260 240 0 0 0 0.000877105 
90 1 290 240 0 0 0 0.000877105 
96 1 170 270 0 0 0 0.000877105 
97 1 200 270 0 0 0 0.000877105 
98 1 230 270 0 0 0 0.000877105 
99 1 260 270 0 0 0 0.000877105 
100 1 290 270 0 0 0 0.000877105 
157 1 180 170 0 0 0 0.000877105 
158 1 210 170 0 0 0 0.000877105 
159 1 240 170 0 0 0 0.000877105 
160 1 270 170 0 0 0 0.000877105 
167 1 180 200 0 0 0 0.000877105 
168 1 210 200 0 0 0 0.000877105 
169 1 240 200 0 0 0 0.000877105 
170 1 270 200 0 0 0 0.000877105 
177 1 180 230 0 0 0 0.000877105 
178 1 210 230 0 0 0 0.000877105 
179 1 240 230 0 0 0 0.000877105 
180 1 270 230 0 0 0 0.000877105 
187 1 180 260 0 0 0 0.000877105 
188 1 210 260 0 0 0 0.000877105 
189 1 240 260 0 0 0 0.000877105 
190 1 270 260 0 0 0 0.000877105 
197 1 180 290 0 0 0 0.000877105 
198 1 210 290 0 0 0 0.000877105 
199 1 240 290 0 0 0 0.000877105 
200 1 270 290 0 0 0 0.000877105 
206 1 300 170 0 0 0 0.000877105 
207 1 300 200 0 0 0 0.000877105 
208 1 300 230 0 0 0 0.000877105 
209 1 300 260 0 0 0 0.000877105 
210 1 300 290 0 0 0 0.000877105 
216 1 170 300 0 0 0 0.000877105 
217 1 200 300 0 0 0 0.000877105 
218 1 230 300 0 0 0 0.000877105 
219 1 260 300 0 0 0 0.000877105 
220 1 290 300 0 0 0 0.000877105 
286 2 165 180 0 10 0 0 
287 2 195 180 0 10 0 0 
288 2 225 180 0 10 0 0 
289 2 255 180 0 10 0 0 
290 2 285 180 0 10 0 0 
296 2 165 210 0 10 0 0 
297 2 195 210 0 10 0 0 
298 2 225 210 0 10 0 0 
299 2 255 210 0 10 0 0 
300 2 285 210 0 10 0 0 
306 2 165 240 0 10 0 0 
307 2 195 240 0 10 0 0 
308 2 225 240 0 10 0 0 
309 2 255 240 0 10 0 0 
310 2 285 240 0 10 0 0 
316 2 165 270 0 10 0 0 
317 2 195 270 0 10 0 0 
318 2 225 270 0 10 0 0 
319 2 255 270 0 10 0 0 
320 2 285 270 0 10 0 0 
377 2 180 165 0 0 10 0 
378 2 210 165 0 0 10 0 
379 2 240 165 0 0 10 0 
380 2 270 165 0 0 10 0 
387 2 180 195 0 0 10 0 
388 2 210 195 0 0 10 0 
389 2 240 195 0 0 10 0 
390 2 270 195 0 0 10 0 
397 2 180 225 0 0 10 0 
398 2 210 225 0 0 10 0 
399 2 240 225 0 0 10 0 
400 2 270 225 0 0 10 0 
407 2 180 255 0 0 10 0 
408 2 210 255 0 0 10 0 
409 2 240 255 0 0 10 0 
410 2 270 255 0 0 10 0 
417 2 180 285 0 0 10 0 
418 2 210 285 0 0 10 0 
419 2 240 285 0 0 10 0 
420 2 270 285 0 0 10 0 
426 2 300 165 0 0 10 0 
427 2 300 195 0 0 10 0 
428 2 300 225 0 0 10 0 
429 2 300 255 0 0 10 0 
430 2 300 285 0 0 10 0 
436 2 165 300 0 10 0 0 
437 2 195 300 0 10 0 0 
438 2 225 300 0 10 0 0 
439 2 255 300 0 10 0 0 
440 2 285 300 0 10 0 0 
ITEM: TIMESTEP
100
ITEM: NUMBER OF ATOMS
440
ITEM: BOX BOUNDS ss ss pp
-3.6000000000000004e-02 3.0003600000000000e+02
-3.6000000000000004e-02 3.0003600000000000e+02
-2.0000000000000000e-02 2.0000000000000000e-02
ITEM: ATOMS id type x y z mux muy muz 
1 1 20.0106 -0.24548 0 0 0 0.000877105 
2 1 50.1132 -0.157865 0 0 0 0.000877105 
3 1 80.1707 -0.534236 0 0 0 0.000877105 
4 1 109.98 -0.176622 0 0 0 0.000877105 
5 1 139.998 -0.2553 0 0 0 0.000877105 
11 1 19.8918 30.3533 0 0 0 0.000877105 
12 1 49.9264 30.3495 0 0 0 0.000877105 
13 1 79.8908 30.4166 0 0 0 0.000877105 
14 1 110.041 30.5011 0 0 0 0.000877105 
15 1 139.923 30.3475 0 0 0 0.000877105 
21 1 19.9287 60.4514 0 0 0 0.000877105 
22 1 49.9559 60.3539 0 0 0 0.000877105 
23 1 79.955 60.4709 0 0 0 0.000877105 
24 1 109.968 60.285 0 0 0 0.000877105 
25 1 140.005 60.3997 0 0 0 0.000877105 
31 1 19.9902 90.4437 0 0 0 0.000877105 
32 1 49.9927 90.4873 0 0 0 0.000877105 
33 1 79.9355 90.5436 0 0 0 0.000877105 
34 1 109.987 90.4733 0 0 0 0.000877105 
35 1 139.904 90.354 0 0 0 0.000877105 
41 1 20.0137 120.363 0 0 0 0.000877105 
42 1 49.9388 120.514 0 0 0 0.000877105 
43 1 79.8565 120.235 0 0 0 0.000877105 
44 1 109.93 120.484 0 0 0 0.000877105 
45 1 139.898 120.537 0 0 0 0.000877105 
51 1 20.044 150.419 0 0 0 0.000877105 
52 1 49.9597 150.427 0 0 0 0.000877105 
53 1 79.9384 150.457 0 0 0 0.000877105 
54 1 110.019 150.373 0 0 0 0.000877105 
55 1 139.977 150.278 0 0 0 0.000877105 
101 1 -0.29333 20.1179 0 0 0 0.000877105 
102 1 30.5148 20.0522 0 0 0 0.000877105 
103 1 60.5441 20.0402 0 0 0 0.000877105 
104 1 90.3915 19.9279 0 0 0 0.000877105 
105 1 120.304 19.9134 0 0 0 0.000877105 
106 1 150.491 19.9549 0 0 0 0.000877105 
111 1 -0.232051 49.9936 0 0 0 0.000877105 
112 1 30.4849 50.03 0 0 0 0.000877105 
113 1 60.4594 49.988 0 0 0 0.000877105 
114 1 90.3914 49.9235 0 0 0 0.000877105 
115 1 120.506 49.9764 0 0 0 0.000877105 
116 1 150.395 50.0696 0 0 0 0.000877105 
121 1 -0.369923 80.0215 0 0 0 0.000877105 
122 1 30.2575 79.9072 0 0 0 0.000877105 
123 1 60.3033 79.9387 0 0 0 0.000877105 
124 1 90.4382 80.015 0 0 0 0.000877105 
125 1 120.311 80.0053 0 0 0 0.000877105 
126 1 150.301 79.933 0 0 0 0.000877105 
131 1 -0.255683 110.087 0 0 0 0.000877105 
132 1 30.5995 109.924 0 0 0 0.000877105 
133 1 60.4869 110.007 0 0 0 0.000877105 
134 1 90.453 109.907 0 0 0 0.000877105 
135 1 120.396 109.88 0 0 0 0.000877105 
136 1 150.426 109.953 0 0 0 0.000877105 
141 1 -0.311975 139.983 0 0 0 0.000877105 
142 1 30.4787 139.895 0 0 0 0.000877105 
143 1 60.4384 139.912 0 0 0 0.000877105 
144 1 90.4506 139.956 0 0 0 0.000877105 
145 1 120.529 140.03 0 0 0 0.000877105 
146 1 150.387 139.912 0 0 0 0.000877105 
221 2 15 0 0 10 0 0 
222 2 45 0 0 10 0 0 
223 2 75 0 0 10 0 0 
224 2 105 0 0 10 0 0 
225 2 135 0 0 10 0 0 
231 2 15 30 0 10 0 0 
232 2 45 30 0 10 0 0 
233 2 75 30 0 10 0 0 
234 2 105 30 0 10 0 0 
235 2 135 30 0 10 0 0 
241 2 15 60 0 10 0 0 
242 2 45 60 0 10 0 0 
243 2 75 60 0 10 0 0 
244 2 105 60 0 10 0 0 
245 2 135 60 0 10 0 0 
251 2 15 90 0 10 0 0 
252 2 45 90 0 10 0 0 
253 2 75 90 0 10 0 0 
254 2 105 90 0 10 0 0 
255 2 135 90 0 10 0 0 
261 2 15 120 0 10 0 0 
262 2 45 120 0 10 0 0 
263 2 75 120 0 10 0 0 
264 2 105 120 0 10 0 0 
265 2 135 120 0 10 0 0 
271 2 15 150 0 10 0 0 
272 2 45 150 0 10 0 0 
273 2 75 150 0 10 0 0 
274 2 105 150 0 10 0 0 
275 2 135 150 0 10 0 0 
321 2 0 15 0 0 10 0 
322 2 30 15 0 0 10 0 
323 2 60 15 0 0 10 0 
324 2 90 15 0 0 10 0 
325 2 120 15 0 0 10 0 
326 2 150 15 0 0 10 0 
331 2 0 45 0 0 10 0 
332 2 30 45 0 0 10 0 
333 2 60 45 0 0 10 0 
334 2 90 45 0 0 10 0 
335 2 120 45 0 0 10 0 
336 2 150 45 0 0 10 0 
341 2 0 75 0 0 10 0 
342 2 30 75 0 0 10 0 
343 2 60 75 0 0 10 0 
344 2 90 75 0 0 10 0 
345 2 120 75 0 0 10 0 
346 2 150 75 0 0 10 0 
351 2 0 105 0 0 10 0 
352 2 30 105 0 0 10 0 
353 2 60 105 0 0 10 0 
354 2 90 105 0 0 10 0 
355 2 120 105 0 0 10 0 
356 2 150 105 0 0 10 0 
361 2 0 135 0 0 10 0 
362 2 30 135 0 0 10 0 
363 2 60 135 0 0 10 0 
364 2 90 135 0 0 10 0 
365 2 120 135 0 0 10 0 
366 2 150 135 0 0 10 0 
6 1 170.111 -0.362212 0 0 0 0.000877105 
7 1 199.968 -0.419621 0 0 0 0.000877105 
8 1 230.069 -0.243945 0 0 0 0.000877105 
9 1 260.186 -0.121164 0 0 0 0.000877105 
10 1 290.1 -0.266113 0 0 0 0.000877105 
16 1 169.961 30.2586 0 0 0 0.000877105 
17 1 199.993 30.367 0 0 0 0.000877105 
18 1 229.897 30.3693 0 0 0 0.000877105 
19 1 260.051 30.4034 0 0 0 0.000877105 
20 1 290.022 30.2635 0 0 0 0.000877105 
26 1 170.074 60.4933 0 0 0 0.000877105 
27 1 200.06 60.4896 0 0 0 0.000877105 
28 1 229.928 60.3615 0 0 0 0.000877105 
29 1 259.98 60.5921 0 0 0 0.000877105 
30 1 289.983 60.4944 0 0 0 0.000877105 
36 1 170.086 90.4322 0 0 0 0.000877105 
37 1 199.922 90.442 0 0 0 0.000877105 
38 1 229.958 90.4222 0 0 0 0.000877105 
39 1 260.025 90.4538 0 0 0 0.000877105 
40 1 289.988 90.4889 0 0 0 0.000877105 
46 1 170.01 120.359 0 0 0 0.000877105 
47 1 200.054 120.415 0 0 0 0.000877105 
48 1 229.988 120.311 0 0 0 0.000877105 
49 1 260.029 120.418 0 0 0 0.000877105 
50 1 289.941 120.407 0 0 0 0.000877105 
56 1 170.016 150.37 0 0 0 0.000877105 
57 1 199.946 150.579 0 0 0 0.000877105 
58 1 229.855 150.52 0 0 0 0.000877105 
59 1 260.016 150.557 0 0 0 0.000877105 
60 1 289.923 150.347 0 0 0 0.000877105 
107 1 180.395 19.7687 0 0 0 0.000877105 
108 1 210.474 19.8821 0 0 0 0.000877105 
109 1 240.443 19.9611 0 0 0 0.000877105 
110 1 270.287 19.9114 0 0 0 0.000877105 
117 1 180.392 49.8346 0 0 0 0.000877105 
118 1 210.406 50.041 0 0 0 0.000877105 
119 1 240.368 49.8918 0 0 0 0.000877105 
120 1 270.336 50.0018 0 0 0 0.000877105 
127 1 180.286 79.9178 0 0 0 0.000877105 
128 1 210.282 80.0143 0 0 0 0.000877105 
129 1 240.383 79.8986 0 0 0 0.000877105 
130 1 270.432 80.0098 0 0 0 0.000877105 
137 1 180.318 110.016 0 0 0 0.000877105 
138 1 210.405 109.961 0 0 0 0.000877105 
139 1 240.527 109.95 0 0 0 0.000877105 
140 1 270.381 110.042 0 0 0 0.000877105 
147 1 180.405 140.088 0 0 0 0.000877105 
148 1 210.523 140.049 0 0 0 0.000877105 
149 1 240.444 139.929 0 0 0 0.000877105 
150 1 270.476 139.863 0 0 0 0.000877105 
201 1 300.658 19.9633 0 0 0 0.000877105 
202 1 300.381 50.0792 0 0 0 0.000877105 
203 1 300.741 79.9079 0 0 0 0.000877105 
204 1 300.827 109.938 0 0 0 0.000877105 
205 1 300.597 140.046 0 0 0 0.000877105 
226 2 165 0 0 10 0 0 
227 2 195 0 0 10 0 0 
228 2 225 0 0 10 0 0 
229 2 255 0 0 10 0 0 
230 2 285 0 0 10 0 0 
236 2 165 30 0 10 0 0 
237 2 195 30 0 10 0 0 
238 2 225 30 0 10 0 0 
239 2 255 30 0 10 0 0 
240 2 285 30 0 10 0 0 
246 2 165 60 0 10 0 0 
247 2 195 60 0 10 0 0 
248 2 225 60 0 10 0 0 
249 2 255 60 0 10 0 0 
250 2 285 60 0 10 0 0 
256 2 165 90 0 10 0 0 
257 2 195 90 0 10 0 0 
258 2 225 90 0 10 0 0 
259 2 255 90 0 10 0 0 
260 2 285 90 0 10 0 0 
266 2 165 120 0 10 0 0 
267 2 195 120 0 10 0 0 
268 2 225 120 0 10 0 0 
269 2 255 120 0 10 0 0 
270 2 285 120 0 10 0 0 
276 2 165 150 0 10 0 0 
277 2 195 150 0 10 0 0 
278 2 225 150 0 10 0 0 
279 2 255 150 0 10 0 0 
280 2 285 150 0 10 0 0 
327 2 180 15 0 0 10 0 
328 2 210 15 0 0 10 0 
329 2 240 15 0 0 10 0 
330 2 270 15 0 0 10 0 
337 2 180 45 0 0 10 0 
338 2 210 45 0 0 10 0 
339 2 240 45 0 0 10 0 
340 2 270 45 0 0 10 0 
347 2 180 75 0 0 10 0 
348 2 210 75 0 0 10 0 
349 2 240 75 0 0 10 0 
350 2 270 75 0 0 10 0 
357 2 180 105 0 0 10 0 
358 2 210 105 0 0 10 0 
359 2 240 105 0 0 10 0 
360 2 270 105 0 0 10 0 
367 2 180 135 0 0 10 0 
368 2 210 135 0 0 10 0 
369 2 240 135 0 0 10 0 
370 2 270 135 0 0 10 0 
421 2 300 15 0 0 10 0 
422 2 300 45 0 0 10 0 
423 2 300 75 0 0 10 0 
424 2 300 105 0 0 10 0 
425 2 300 135 0 0 10 0 
61 1 19.7693 180.526 0 0 0 0.000877105 
62 1 49.9042 180.321 0 0 0 0.000877105 
63 1 79.9867 180.447 0 0 0 0.000877105 
64 1 110.052 180.327 0 0 0 0.000877105 
65 1 139.964 180.386 0 0 0 0.000877105 
71 1 20.0501 210.309 0 0 0 0.000877105 
72 1 50.028 210.386 0 0 0 0.000877105 
73 1 79.8898 210.543 0 0 0 0.000877105 
74 1 110.046 210.493 0 0 0 0.000877105 
75 1 139.987 210.466 0 0 0 0.000877105 
81 1 19.9057 240.382 0 0 0 0.000877105 
82 1 50.0378 240.421 0 0 0 0.000877105 
83 1 79.9875 240.437 0 0 0 0.000877105 
84 1 109.953 240.366 0 0 0 0.000877105 
85 1 139.967 240.388 0 0 0 0.000877105 
91 1 19.9916 270.441 0 0 0 0.000877105 
92 1 50.0268 270.198 0 0 0 0.000877105 
93 1 80.0003 270.354 0 0 0 0.000877105 
94 1 109.902 270.408 0 0 0 0.000877105 
95 1 140.025 270.443 0 0 0 0.000877105 
151 1 -0.284031 170.06 0 0 0 0.000877105 
152 1 30.4014 170.017 0 0 0 0.000877105 
153 1 60.4903 170.059 0 0 0 0.000877105 
154 1 90.3747 169.851 0 0 0 0.000877105 
155 1 120.405 169.943 0 0 0 0.000877105 
156 1 150.483 170.001 0 0 0 0.000877105 
161 1 -0.119078 200.044 0 0 0 0.000877105 
162 1 30.4883 200.066 0 0 0 0.000877105 
163 1 60.5034 200.05 0 0 0 0.000877105 
164 1 90.4322 199.889 0 0 0 0.000877105 
165 1 120.392 199.981 0 0 0 0.000877105 
166 1 150.362 199.906 0 0 0 0.000877105 
171 1 -0.146261 229.95 0 0 0 0.000877105 
172 1 30.4161 230.018 0 0 0 0.000877105 
173 1 60.4031 229.96 0 0 0 0.000877105 
174 1 90.4029 229.964 0 0 0 0.000877105 
175 1 120.362 229.989 0 0 0 0.000877105 
176 1 150.451 230.062 0 0 0 0.000877105 
181 1 -0.22716 260.258 0 0 0 0.000877105 
182 1 30.2386 259.937 0 0 0 0.000877105 
183 1 60.549 260.037 0 0 0 0.000877105 
184 1 90.3449 259.969 0 0 0 0.000877105 
185 1 120.38 260.047 0 0 0 0.000877105 
186 1 150.321 259.905 0 0 0 0.000877105 
191 1 -0.309944 290.181 0 0 0 0.000877105 
192 1 30.3247 290.057 0 0 0 0.000877105 
193 1 60.4697 290.027 0 0 0 0.000877105 
194 1 90.5264 290.037 0 0 0 0.000877105 
195 1 120.422 289.961 0 0 0 0.000877105 
196 1 150.544 290.028 0 0 0 0.000877105 
211 1 19.9259 300.723 0 0 0 0.000877105 
212 1 50.0684 300.701 0 0 0 0.000877105 
213 1 79.9831 300.658 0 0 0 0.000877105 
214 1 109.888 300.696 0 0 0 0.000877105 
215 1 139.995 300.711 0 0 0 0.000877105 
281 2 15 180 0 10 0 0 
282 2 45 180 0 10 0 0 
283 2 75 180 0 10 0 0 
284 2 105 180 0 10 0 0 
285 2 135 180 0 10 0 0 
291 2 15 210 0 10 0 0 
292 2 45 210 0 10 0 0 
293 2 75 210 0 10 0 0 
294 2 105 210 0 10 0 0 
295 2 135 210 0 10 0 0 
301 2 15 240 0 10 0 0 
302 2 45 240 0 10 0 0 
303 2 75 240 0 10 0 0 
304 2 105 240 0 10 0 0 
305 2 135 240 0 10 0 0 
311 2 15 270 0 10 0 0 
312 2 45 270 0 10 0 0 
313 2 75 270 0 10 0 0 
314 2 105 270 0 10 0 0 
315 2 135 270 0 10 0 0 
371 2 0 165 0 0 10 0 
372 2 30 165 0 0 10 0 
373 2 60 165 0 0 10 0 
374 2 90 165 0 0 10 0 
375 2 120 165 0 0 10 0 
376 2 150 165 0 0 10 0 
381 2 0 195 0 0 10 0 
382 2 30 195 0 0 10 0 
383 2 60 195 0 0 10 0 
384 2 90 195 0 0 10 0 
385 2 120 195 0 0 10 0 
386 2 150 195 0 0 10 0 
391 2 0 225 0 0 10 0 
392 2 30 225 0 0 10 0 
393 2 60 225 0 0 10 0 
394 2 90 225 0 0 10 0 
395 2 120 225 0 0 10 0 
396 2 150 225 0 0 10 0 
401 2 0 255 0 0 10 0 
402 2 30 255 0 0 10 0 
403 2 60 255 0 0 10 0 
404 2 90 255 0 0 10 0 
405 2 120 255 0 0 10 0 
406 2 150 255 0 0 10 0 
411 2 0 285 0 0 10 0 
412 2 30 285 0 0 10 0 
413 2 60 285 0 0 10 0 
414 2 90 285 0 0 10 0 
415 2 120 285 0 0 10 0 
416 2 150 285 0 0 10 0 
431 2 15 300 0 10 0 0 
432 2 45 300 0 10 0 0 
433 2 75 300 0 10 0 0 
434 2 105 300 0 10 0 0 
435 2 135 300 0 10 0 0 
66 1 169.984 180.442 0 0 0 0.000877105 
67 1 199.939 180.342 0 0 0 0.000877105 
68 1 229.948 180.412 0 0 0 0.000877105 
69 1 259.97 180.584 0 0 0 0.000877105 
70 1 290.002 180.415 0 0 0 0.000877105 
76 1 170.051 210.405 0 0 0 0.000877105 
77 1 200.015 210.334 0 0 0 0.000877105 
78 1 230.025 210.394 0 0 0 0.000877105 
79 1 260.04 210.528 0 0 0 0.000877105 
80 1 289.881 210.422 0 0 0 0.000877105 
86 1 169.958 240.367 0 0 0 0.000877105 
87 1 200.064 240.365 0 0 0 0.000877105 
88 1 229.918 240.393 0 0 0 0.000877105 
89 1 259.906 240.512 0 0 0 0.000877105 
90 1 289.922 240.339 0 0 0 0.000877105 
96 1 169.979 270.433 0 0 0 0.000877105 
97 1 200.02 270.411 0 0 0 0.000877105 
98 1 230.009 270.468 0 0 0 0.000877105 
99 1 260.092 270.501 0 0 0 0.000877105 
100 1 289.979 270.373 0 0 0 0.000877105 
157 1 180.332 169.971 0 0 0 0.000877105 
158 1 210.44 169.976 0 0 0 0.000877105 
159 1 240.522 169.923 0 0 0 0.000877105 
160 1 270.483 169.949 0 0 0 0.000877105 
167 1 180.327 200.063 0 0 0 0.000877105 
168 1 210.443 200.068 0 0 0 0.000877105 
169 1 240.313 200.052 0 0 0 0.000877105 
170 1 270.274 199.985 0 0 0 0.000877105 
177 1 180.319 229.908 0 0 0 0.000877105 
178 1 210.41 230.005 0 0 0 0.000877105 
179 1 240.427 229.923 0 0 0 0.000877105 
180 1 270.327 229.961 0 0 0 0.000877105 
187 1 180.364 259.888 0 0 0 0.000877105 
188 1 210.359 259.976 0 0 0 0.000877105 
189 1 240.423 260.014 0 0 0 0.000877105 
190 1 270.429 259.977 0 0 0 0.000877105 
197 1 180.357 289.948 0 0 0 0.000877105 
198 1 210.223 290.034 0 0 0 0.000877105 
199 1 240.421 290.059 0 0 0 0.000877105 
200 1 270.434 290.068 0 0 0 0.000877105 
206 1 300.573 169.916 0 0 0 0.000877105 
207 1 300.612 199.992 0 0 0 0.000877105 
208 1 300.591 229.847 0 0 0 0.000877105 
209 1 300.791 259.979 0 0 0 0.000877105 
210 1 300.588 289.899 0 0 0 0.000877105 
216 1 170.057 300.63 0 0 0 0.000877105 
217 1 199.963 300.828 0 0 0 0.000877105 
218 1 230.076 300.724 0 0 0 0.000877105 
219 1 259.938 300.734 0 0 0 0.000877105 
220 1 290.069 300.67 0 0 0 0.000877105 
286 2 165 180 0 10 0 0 
287 2 195 180 0 10 0 0 
288 2 225 180 0 10 0 0 
289 2 255 180 0 10 0 0 
290 2 285 180 0 10 0 0 
296 2 165 210 0 10 0 0 
297 2 195 210 0 10 0 0 
298 2 225 210 0 10 0 0 
299 2 255 210 0 10 0 0 
300 2 285 210 0 10 0 0 
306 2 165 240 0 10 0 0 
307 2 195 240 0 10 0 0 
308 2 225 240 0 10 0 0 
309 2 255 240 0 10 0 0 
310 2 285 240 0 10 0 0 
316 2 165 270 0 10 0 0 
317 2 195 270 0 10 0 0 
318 2 225 270 0 10 0 0 
319 2 255 270 0 10 0 0 
320 2 285 270 0 10 0 0 
377 2 180 165 0 0 10 0 
378 2 210 165 0 0 10 0 
379 2 240 165 0 0 10 0 
380 2 270 165 0 0 10 0 
387 2 180 195 0 0 10 0 
388 2 210 195 0 0 10 0 
389 2 240 195 0 0 10 0 
390 2 270 195 0 0 10 0 
397 2 180 225 0 0 10 0 
398 2 210 225 0 0 10 0 
399 2 240 225 0 0 10 0 
400 2 270 225 0 0 10 0 
407 2 180 255 0 0 10 0 
408 2 210 255 0 0 10 0 
409 2 240 255 0 0 10 0 
410 2 270 255 0 0 10 0 
417 2 180 285 0 0 10 0 
418 2 210 285 0 0 10 0 
419 2 240 285 0 0 10 0 
420 2 270 285 0 0 10 0 
426 2 300 165 0 0 10 0 
427 2 300 195 0 0 10 0 
428 2 300 225 0 0 10 0 
429 2 300 255 0 0 10 0 
430 2 300 285 0 0 10 0 
436 2 165 300 0 10 0 0 
437 2 195 300 0 10 0 0 
438 2 225 300 0 10 0 0 
439 2 255 300 0 10 0 0 
440 2 285 300 0 10 0 0 
ITEM: TIMESTEP
200
ITEM: NUMBER OF ATOMS
440
ITEM: BOX BOUNDS ss ss pp
-3.6000000000000004e-02 3.0003600000000000e+02
-3.6000000000000004e-02 3.0003600000000000e+02
-2.0000000000000000e-02 2.0000000000000000e-02
ITEM: ATOMS id type x y z mux muy muz 
1 1 20.1307 -0.167564 0 0 0 0.000877105 
2 1 50.0733 -0.221515 0 0 0 0.000877105 
3 1 80.0209 -0.233343 0 0 0 0.000877105 
4 1 110.002 -0.30848 0 0 0 0.000877105 
5 1 140.096 -0.265643 0 0 0 0.000877105 
11 1 19.9005 30.5249 0 0 0 0.000877105 
12 1 49.9595 30.3072 0 0 0 0.000877105 
13 1 80.009 30.3385 0 0 0 0.000877105 
14 1 109.874 30.3893 0 0 0 0.000877105 
15 1 140 30.4086 0 0 0 0.000877105 
21 1 19.9667 60.4128 0 0 0 0.000877105 
22 1 49.9563 60.4215 0 0 0 0.000877105 
23 1 80.0014 60.3643 0 0 0 0.000877105 
24 1 109.951 60.4405 0 0 0 0.000877105 
25 1 139.961 60.4989 0 0 0 0.000877105 
31 1 19.934 90.643 0 0 0 0.000877105 
32 1 50.0509 90.2791 0 0 0 0.000877105 
33 1 79.9079 90.4211 0 0 0 0.000877105 
34 1 109.943 90.4526 0 0 0 0.000877105 
35 1 139.862 90.3979 0 0 0 0.000877105 
41 1 19.8595 120.401 0 0 0 0.000877105 
42 1 49.9081 120.33 0 0 0 0.000877105 
43 1 79.992 120.471 0 0 0 0.000877105 
44 1 109.963 120.437 0 0 0 0.000877105 
45 1 140.036 120.433 0 0 0 0.000877105 
51 1 19.937 150.382 0 0 0 0.000877105 
52 1 50.0262 150.36 0 0 0 0.000877105 
53 1 80.0305 150.475 0 0 0 0.000877105 
54 1 110.053 150.205 0 0 0 0.000877105 
55 1 139.885 150.407 0 0 0 0.000877105 
101 1 -0.187809 20.0881 0 0 0 0.000877105 
102 1 30.4057 19.9318 0 0 0 0.000877105 
103 1 60.3024 19.9618 0 0 0 0.000877105 
104 1 90.4275 19.8214 0 0 0 0.000877105 
105 1 120.319 19.9998 0 0 0 0.000877105 
106 1 150.553 19.8515 0 0 0 0.000877105 
111 1 -0.360314 49.9639 0 0 0 0.000877105 
112 1 30.334 49.9121 0 0 0 0.000877105 
113 1 60.3043 49.9462 0 0 0 0.000877105 
114 1 90.3863 50.0256 0 0 0 0.000877105 
115 1 120.361 50.009 0 0 0 0.000877105 
116 1 150.355 49.9392 0 0 0 0.000877105 
121 1 -0.375693 80.2243 0 0 0 0.000877105 
122 1 30.4582 79.8709 0 0 0 0.000877105 
123 1 60.5134 79.922 0 0 0 0.000877105 
124 1 90.5527 79.9061 0 0 0 0.000877105 
125 1 120.428 80.0223 0 0 0 0.000877105 
126 1 150.443 79.9522 0 0 0 0.000877105 
131 1 -0.0876438 110.055 0 0 0 0.000877105 
132 1 30.4655 110.014 0 0 0 0.000877105 
133 1 60.4561 110.039 0 0 0 0.000877105 
134 1 90.306 110.013 0 0 0 0.000877105 
135 1 120.329 109.911 0 0 0 0.000877105 
136 1 150.53 109.959 0 0 0 0.000877105 
141 1 -0.325181 140.006 0 0 0 0.000877105 
142 1 30.4662 139.933 0 0 0 0.000877105 
143 1 60.4751 139.909 0 0 0 0.000877105 
144 1 90.4307 139.953 0 0 0 0.000877105 
145 1 120.487 139.975 0 0 0 0.000877105 
146 1 150.405 140.039 0 0 0 0.000877105 
221 2 15 0 0 10 0 0 
222 2 45 0 0 10 0 0 
223 2 75 0 0 10 0 0 
224 2 105 0 0 10 0 0 
225 2 135 0 0 10 0 0 
231 2 15 30 0 10 0 0 
232 2 45 30 0 10 0 0 
233 2 75 30 0 10 0 0 
234 2 105 30 0 10 0 0 
235 2 135 30 0 10 0 0 
241 2 15 60 0 10 0 0 
242 2 45 60 0 10 0 0 
243 2 75 60 0 10 0 0 
244 2 105 60 0 10 0 0 
245 2 135 60 0 10 0 0 
251 2 15 90 0 10 0 0 
252 2 45 90 0 10 0 0 
253 2 75 90 0 10 0 0 
254 2 105 90 0 10 0 0 
255 2 135 90 0 10 0 0 
261 2 15 120 0 10 0 0 
262 2 45 120 0 10 0 0 
263 2 75 120 0 10 0 0 
264 2 105 120 0 10 0 0 
265 2 135 120 0 10 0 0 
271 2 15 150 0 10 0 0 
272 2 45 150 0 10 0 0 
273 2 75 150 0 10 0 0 
274 2 105 150 0 10 0 0 
275 2 135 150 0 10 0 0 
321 2 0 15 0 0 10 0 