ITEM: TIMESTEP
0
ITEM: NUMBER OF ATOMS
786
ITEM: BOX BOUNDS ss ss pp
-1.7529750000000000e+01 2.1002975000000001e+02
-1.8095186999999999e+01 1.6965518699999998e+02
-1.7500000000000000e+00 1.7500000000000000e+00
ITEM: ATOMS id type x y z mu 
13 6 -8.75 15.16 0 11.5603 
29 6 17.5 0 0 12 
99 6 -8.75 -15.16 0 11.5603 
112 6 8.75 -15.16 0 11.5603 
113 6 -17.5 0 0 12 
124 6 8.75 15.16 0 11.5603 
144 1 -3.7 18.07 -0.009064 0 
160 1 17.5 -5.83 0.004585 0 
230 1 -13.8 -12.24 0.00976 0 
243 1 3.7 -18.07 -0.01743 0 
244 1 -17.5 -5.83 0.004381 0 
255 1 3.7 18.07 0.006236 0 
275 2 -13.8 12.24 -0.014886 0 
291 2 17.5 -5.83 0.013128 0 
361 2 -13.8 -12.24 -0.007578 0 
374 2 3.7 -18.07 0.006229 0 
375 2 -17.5 5.83 0.001751 0 
386 2 3.7 18.07 0.014355 0 
406 3 -3.7 18.07 -0.001623 0 
422 3 17.5 5.83 -0.006578 0 
492 3 -13.8 -12.24 -0.009891 0 
505 3 3.7 -18.07 -0.028983 0 
506 3 -17.5 -5.83 -0.002712 0 
517 3 13.8 12.24 0.002666 0 
537 4 -3.7 18.07 0.014617 0 
553 4 17.5 -5.83 -0.013119 0 
623 4 -3.7 -18.07 0.005139 0 
636 4 13.8 -12.24 0.011328 0 
637 4 -17.5 -5.83 -0.014031 0 
648 4 13.8 12.24 -0.008652 0 
668 5 -3.7 18.07 -0.012759 0 
684 5 17.5 -5.83 -0.002792 0 
754 5 -13.8 -12.24 -0.010429 0 
767 5 13.8 -12.24 -0.017315 0 
768 5 -17.5 -5.83 -0.013571 0 
779 5 3.7 18.07 -0.002193 0 
20 6 26.25 15.16 0 11.5603 
28 6 43.75 -15.16 0 11.5603 
60 6 43.75 15.16 0 11.5603 
69 6 52.5 0 0 12 
105 6 26.25 -15.16 0 11.5603 
151 1 21.2 12.24 -0.001785 0 
159 1 48.8 -12.24 0.008665 0 
191 1 48.8 12.24 -0.004675 0 
200 1 52.5 5.83 0.004332 0 
212 1 56.2 -12.24 0.024034 0 
236 1 31.3 -18.07 -0.006566 0 
282 2 21.2 12.24 -0.004564 0 
290 2 48.8 -12.24 -0.008696 0 
322 2 48.8 12.24 -0.0042 0 
331 2 52.5 5.83 -0.001399 0 
367 2 21.2 -12.24 0.013538 0 
380 2 56.2 12.24 -0.006975 0 
413 3 31.3 18.07 -0.005321 0 
421 3 48.8 -12.24 0.004541 0 
453 3 48.8 12.24 -0.001148 0 
462 3 52.5 -5.83 0.009707 0 
474 3 56.2 -12.24 -0.000199 0 
498 3 31.3 -18.07 0.001729 0 
544 4 21.2 12.24 -0.009917 0 
552 4 48.8 -12.24 -0.001579 0 
584 4 38.7 18.07 -0.002728 0 
593 4 52.5 5.83 0.002015 0 
605 4 56.2 -12.24 -0.00762 0 
629 4 31.3 -18.07 0.000255 0 
642 4 56.2 12.24 0.008895 0 
675 5 21.2 12.24 0.007273 0 
683 5 38.7 -18.07 0.021427 0 
715 5 38.7 18.07 -0.001723 0 
724 5 52.5 5.83 0.005199 0 
736 5 56.2 -12.24 0.010974 0 
760 5 21.2 -12.24 0.005181 0 
773 5 56.2 12.24 0.005722 0 
19 6 87.5 0 0 12 
24 6 78.75 -15.16 0 11.5603 
81 6 61.25 -15.16 0 11.5603 
82 6 78.75 15.16 0 11.5603 
118 6 61.25 15.16 0 11.5603 
150 1 87.5 -5.83 -0.002852 0 
155 1 73.7 -18.07 -0.005196 0 
213 1 73.7 18.07 -0.006558 0 
249 1 66.3 18.07 -0.004624 0 
281 2 87.5 -5.83 0.016691 0 
286 2 83.8 -12.24 0.014721 0 
317 2 91.2 -12.24 0.017093 0 
343 2 66.3 -18.07 -0.000246 0 
344 2 73.7 18.07 -0.004657 0 
412 3 87.5 -5.83 0.004856 0 
417 3 83.8 -12.24 -0.002579 0 
463 3 91.2 12.24 -0.016752 0 
475 3 73.7 18.07 -0.002867 0 
511 3 66.3 18.07 -0.02796 0 
543 4 87.5 5.83 -0.005525 0 
548 4 83.8 -12.24 0.001297 0 
594 4 91.2 12.24 0.009532 0 
606 4 73.7 18.07 -0.013917 0 
674 5 87.5 -5.83 -0.005047 0 
679 5 73.7 -18.07 0.002759 0 
737 5 83.8 12.24 0.011075 0 
25 6 113.75 15.16 0 11.5603 
51 6 131.25 -15.16 0 11.5603 
55 6 96.25 -15.16 0 11.5603 
66 6 113.75 -15.16 0 11.5603 
70 6 96.25 15.16 0 11.5603 
76 6 131.25 15.16 0 11.5603 
116 6 122.5 0 0 12 
156 1 108.7 18.07 -0.005348 0 
186 1 101.3 -18.07 0.008819 0 
197 1 108.7 -18.07 0.013476 0 
201 1 101.3 18.07 -0.000418 0 
207 1 126.2 12.24 0.001266 0 
247 1 122.5 -5.83 0.00561 0 
287 2 118.8 12.24 -0.009972 0 
313 2 126.2 -12.24 0.005889 0 
328 2 118.8 -12.24 -0.002762 0 
332 2 101.3 18.07 -0.010596 0 
338 2 126.2 12.24 0.008941 0 
378 2 122.5 -5.83 0.009693 0 
418 3 108.7 18.07 -0.007023 0 
448 3 101.3 -18.07 0.022203 0 
459 3 108.7 -18.07 -0.025192 0 
469 3 126.2 12.24 -0.008123 0 
509 3 122.5 5.83 -0.006411 0 
549 4 108.7 18.07 0.005524 0 
579 4 101.3 -18.07 -0.008744 0 
590 4 108.7 -18.07 0.009689 0 
600 4 126.2 12.24 -0.007949 0 
640 4 122.5 -5.83 -0.014174 0 
680 5 108.7 18.07 0.00571 0 
710 5 101.3 -18.07 -0.011597 0 
721 5 108.7 -18.07 -0.0134 0 
725 5 101.3 18.07 1e-06 0 
771 5 122.5 -5.83 0.012479 0 
40 6 166.25 -15.16 0 11.5603 
41 6 148.75 15.16 0 11.5603 
83 6 148.75 -15.16 0 11.5603 
97 6 166.25 15.16 0 11.5603 
121 6 157.5 0 0 12 
171 1 171.3 -18.07 0.017955 0 
172 1 153.8 12.24 -0.013753 0 
182 1 136.3 -18.07 0.006379 0 
214 1 143.7 -18.07 -0.012461 0 
228 1 171.3 18.07 -0.004147 0 
252 1 157.5 -5.83 0.00265 0 
302 2 171.3 -18.07 -0.018362 0 
303 2 153.8 12.24 0.018318 0 
345 2 143.7 -18.07 0.021624 0 
359 2 161.2 12.24 0.002633 0 
383 2 157.5 -5.83 -0.008923 0 
433 3 171.3 -18.07 -0.006011 0 
434 3 153.8 12.24 -0.009548 0 
444 3 136.3 -18.07 0.004018 0 
476 3 143.7 -18.07 0.006554 0 
490 3 161.2 12.24 0.01618 0 
514 3 157.5 5.83 0.0158 0 
564 4 171.3 -18.07 -0.008305 0 
565 4 143.7 18.07 -0.011862 0 
575 4 136.3 -18.07 0.017343 0 
607 4 153.8 -12.24 -0.001664 0 
621 4 161.2 12.24 -0.005178 0 
645 4 157.5 5.83 -0.016882 0 
695 5 161.2 -12.24 -0.012854 0 
696 5 153.8 12.24 -0.007354 0 
706 5 136.3 -18.07 0.000437 0 
731 5 136.3 18.07 -0.016161 0 
738 5 143.7 -18.07 0.001499 0 
752 5 171.3 18.07 0.005194 0 
776 5 157.5 5.83 0.002304 0 
36 6 201.25 15.16 0 11.5603 
48 6 183.75 15.16 0 11.5603 
79 6 183.75 -15.16 0 11.5603 
125 6 192.5 0 0 12 
167 1 206.3 18.07 -0.000234 0 
179 1 178.7 18.07 0.011583 0 
210 1 178.7 -18.07 -0.000424 0 
256 1 192.5 5.83 -0.00131 0 
298 2 196.2 12.24 -0.003729 0 
310 2 178.7 18.07 -0.002027 0 
341 2 188.8 -12.24 0.005907 0 
387 2 192.5 -5.83 0.001733 0 
429 3 196.2 12.24 -0.012674 0 
441 3 188.8 12.24 0.015822 0 
472 3 178.7 -18.07 0.000911 0 
518 3 192.5 -5.83 0.000883 0 
560 4 206.3 18.07 0.001683 0 
572 4 188.8 12.24 -0.031285 0 
603 4 178.7 -18.07 0.00541 0 
649 4 192.5 -5.83 0.011792 0 
691 5 196.2 12.24 -0.014146 0 
703 5 178.7 18.07 -0.020586 0 
734 5 178.7 -18.07 0.007544 0 
780 5 192.5 -5.83 -0.002055 0 
54 6 0 30.31 0 12 
80 6 8.75 45.47 0 11.5603 
93 6 -8.75 45.47 0 11.5603 
185 1 0 36.14 0.012767 0 
211 1 13.8 48.38 0.008888 0 
224 1 -13.8 48.38 0.014824 0 
269 2 -17.5 54.79 0.008389 0 
316 2 0 36.14 -0.00241 0 
342 2 13.8 48.38 -0.000143 0 
355 2 -3.7 42.55 0.00141 0 
395 3 17.5 54.79 -0.004798 0 
400 3 -17.5 54.79 0.021491 0 
447 3 0 36.14 -0.00437 0 
473 3 3.7 42.55 0.014386 0 
486 3 -3.7 42.55 0.011943 0 
526 4 17.5 54.79 0.004428 0 
531 4 -17.5 54.79 0.003349 0 
578 4 0 36.14 -0.034322 0 
604 4 13.8 48.38 0.004709 0 
617 4 -13.8 48.38 -0.001171 0 
657 5 17.5 54.79 -0.014306 0 
709 5 0 24.48 -0.009626 0 
735 5 13.8 48.38 -0.002032 0 
748 5 -13.8 48.38 -0.000232 0 
9 6 26.25 45.47 0 11.5603 
67 6 43.75 45.47 0 11.5603 
102 6 35 30.31 0 12 
140 1 21.2 48.38 0.009256 0 
198 1 38.7 42.55 -0.013211 0 
222 1 56.2 48.38 -0.013273 0 
233 1 35 24.48 -0.000382 0 
260 1 52.5 54.79 0.000446 0 
271 2 31.3 42.55 0.004437 0 
329 2 48.8 48.38 0.005838 0 
364 2 35 24.48 -0.000171 0 
391 2 52.5 54.79 0.017959 0 
402 3 31.3 42.55 0.013367 0 
460 3 38.7 42.55 -0.009176 0 
484 3 56.2 48.38 0.006357 0 
495 3 35 36.14 -0.005518 0 
533 4 31.3 42.55 -0.005834 0 
591 4 48.8 48.38 0.015684 0 
615 4 56.2 48.38 0.010698 0 
626 4 35 36.14 0.006795 0 
653 4 52.5 54.79 0.006597 0 
664 5 21.2 48.38 -0.000119 0 
722 5 48.8 48.38 0.019004 0 
746 5 56.2 48.38 0.011844 0 
757 5 35 24.48 -0.006252 0 
27 6 70 30.31 0 12 
39 6 78.75 45.47 0 11.5603 
91 6 61.25 45.47 0 11.5603 
157 1 87.5 54.79 0.00666 0 
158 1 70 24.48 -0.003159 0 
170 1 83.8 48.38 -0.001513 0 
288 2 87.5 54.79 -0.017539 0 
289 2 70 36.14 0.010484 0 
301 2 73.7 42.55 0.014008 0 
353 2 66.3 42.55 -0.014215 0 
419 3 87.5 54.79 -0.003957 0 
420 3 70 36.14 -0.004947 0 
432 3 73.7 42.55 -0.001725 0 
491 3 91.2 48.38 0.011861 0 
551 4 70 24.48 -0.010312 0 
563 4 83.8 48.38 -0.002296 0 
622 4 91.2 48.38 -0.007761 0 
681 5 87.5 54.79 -0.003621 0 
682 5 70 24.48 0.006491 0 
694 5 83.8 48.38 -0.002348 0 
45 6 131.25 45.47 0 11.5603 
85 6 113.75 45.47 0 11.5603 
98 6 96.25 45.47 0 11.5603 
131 6 105 30.31 0 12 
216 1 118.8 48.38 -0.003161 0 
229 1 101.3 42.55 -0.015979 0 
262 1 105 36.14 -0.013527 0 
307 2 126.2 48.38 -0.003823 0 
347 2 108.7 42.55 -0.003057 0 
360 2 101.3 42.55 -0.013239 0 
392 2 122.5 54.79 0.015585 0 
393 2 105 24.48 0.012243 0 
438 3 126.2 48.38 0.01048 0 
478 3 118.8 48.38 0.006015 0 
523 3 122.5 54.79 0.024793 0 
524 3 105 36.14 0.009796 0 
609 4 118.8 48.38 0.004807 0 
654 4 122.5 54.79 0.00112 0 
655 4 105 24.48 -0.00566 0 
740 5 108.7 42.55 0.002969 0 
753 5 101.3 42.55 0.00036 0 
786 5 105 36.14 3e-05 0 
15 6 166.25 45.47 0 11.5603 
34 6 148.75 45.47 0 11.5603 
63 6 140 30.31 0 12 
146 1 171.3 42.55 -0.011237 0 
165 1 153.8 48.38 0.010632 0 
176 1 136.3 42.55 0.010347 0 
194 1 140 24.48 -0.004232 0 
235 1 157.5 54.79 -0.010153 0 
277 2 171.3 42.55 6e-06 0 
296 2 153.8 48.38 -0.01569 0 
325 2 140 36.14 -0.015818 0 
366 2 157.5 54.79 -0.026011 0 
408 3 161.2 48.38 0.024736 0 
427 3 143.7 42.55 -0.003874 0 
456 3 140 36.14 -0.00415 0 
497 3 157.5 54.79 0.004856 0 
539 4 171.3 42.55 0.009531 0 
558 4 143.7 42.55 -0.018454 0 
569 4 136.3 42.55 0.00996 0 
587 4 140 36.14 -0.004494 0 
628 4 157.5 54.79 0.014578 0 
670 5 161.2 48.38 -0.014449 0 
689 5 153.8 48.38 -0.010146 0 
700 5 136.3 42.55 -0.006532 0 
718 5 140 24.48 -0.022942 0 
5 6 201.25 45.47 0 11.5603 
22 6 175 30.31 0 12 
72 6 210 30.31 0 12 
114 6 183.75 45.47 0 11.5603 
136 1 196.2 48.38 -0.013599 0 
153 1 175 36.14 0.003023 0 
203 1 210 36.14 0.002645 0 
245 1 178.7 42.55 0.011809 0 
267 2 196.2 48.38 0.017716 0 
284 2 175 36.14 0.007071 0 
324 2 192.5 54.79 0.002863 0 
334 2 210 24.48 0.009505 0 
376 2 188.8 48.38 0.010734 0 
398 3 206.3 42.55 -0.014432 0 
415 3 175 36.14 -0.005024 0 
465 3 210 36.14 0.009211 0 
507 3 188.8 48.38 0.010788 0 
529 4 196.2 48.38 0.001094 0 
546 4 175 36.14 -0.007695 0 
586 4 192.5 54.79 -0.004285 0 
596 4 210 24.48 -0.001941 0 
638 4 178.7 42.55 -0.002638 0 
660 5 206.3 42.55 0.002754 0 
677 5 175 24.48 0.006533 0 
727 5 210 24.48 -0.007145 0 
769 5 178.7 42.55 -0.004896 0 
2 6 17.5 60.62 0 12 
7 6 -17.5 60.62 0 12 
31 6 -8.75 75.78 0 11.5603 
57 6 8.75 75.78 0 11.5603 
128 6 0 90.93 0 12 
133 1 17.5 66.46 0.010713 0 
138 1 -17.5 66.46 -0.005082 0 
162 1 -3.7 78.69 -0.002631 0 
188 1 3.7 78.69 0.018415 0 
259 1 -0 85.1 0.002889 0 
264 2 17.5 66.46 -0.007878 0 
293 2 -3.7 78.69 0.002266 0 
319 2 13.8 72.86 -0.009559 0 
390 2 -0 85.1 -0.001073 0 
424 3 -13.8 72.86 0.013426 0 
450 3 13.8 72.86 0.005089 0 
521 3 -0 85.1 0.005526 0 
555 4 -13.8 72.86 -0.013787 0 
581 4 3.7 78.69 0.017119 0 
652 4 -0 85.1 -0.003792 0 
662 5 -17.5 66.46 -0.002654 0 
686 5 -13.8 72.86 0.00369 0 
712 5 13.8 72.86 -0.016821 0 
783 5 -0 85.1 0.006932 0 
46 6 43.75 75.78 0 11.5603 
86 6 35 90.93 0 12 
94 6 26.25 75.78 0 11.5603 
129 6 52.5 60.62 0 12 
177 1 38.7 78.69 0.007592 0 
217 1 35 85.1 0.003448 0 
219 1 56.2 72.86 -0.004249 0 
225 1 31.3 78.69 0.003597 0 
308 2 48.8 72.86 -0.014761 0 
350 2 56.2 72.86 -0.025692 0 
356 2 31.3 78.69 -0.007572 0 
439 3 48.8 72.86 0.011232 0 
487 3 21.2 72.86 0.006429 0 
522 3 52.5 66.46 -0.000787 0 
570 4 48.8 72.86 0.001067 0 
612 4 56.2 72.86 -0.01113 0 
618 4 21.2 72.86 0.00204 0 
701 5 38.7 78.69 -0.005073 0 
741 5 35 85.1 -0.002899 0 
749 5 31.3 78.69 -0.005099 0 
784 5 52.5 66.46 0.009428 0 
26 6 87.5 60.62 0 12 
33 6 78.75 75.78 0 11.5603 
88 6 61.25 75.78 0 11.5603 
89 6 70 90.93 0 12 
164 1 73.7 78.69 -0.00686 0 
169 1 91.2 72.86 -0.012781 0 
295 2 73.7 78.69 -0.00176 0 
351 2 70 85.1 -0.005904 0 
426 3 83.8 72.86 -0.003552 0 
481 3 66.3 78.69 0.00533 0 
482 3 70 85.1 0.00174 0 
550 4 87.5 66.46 -0.010598 0 
557 4 73.7 78.69 0.012504 0 
562 4 91.2 72.86 -0.016579 0 
613 4 70 85.1 0.006728 0 
688 5 73.7 78.69 0.007964 0 
693 5 91.2 72.86 0.011297 0 
743 5 66.3 78.69 0.009279 0 
744 5 70 85.1 0.009574 0 
23 6 113.75 75.78 0 11.5603 
38 6 96.25 75.78 0 11.5603 
100 6 131.25 75.78 0 11.5603 
111 6 105 90.93 0 12 
130 6 122.5 60.62 0 12 
154 1 118.8 72.86 -0.007065 0 
231 1 126.2 72.86 -0.00031 0 
261 1 122.5 66.46 0.002342 0 
285 2 108.7 78.69 0.024601 0 
300 2 101.3 78.69 0.000795 0 
362 2 126.2 72.86 0.004258 0 
416 3 118.8 72.86 -0.014152 0 
431 3 101.3 78.69 0.010059 0 
493 3 126.2 72.86 -0.009782 0 
504 3 105 85.1 0.007512 0 
547 4 108.7 78.69 -0.000974 0 
678 5 118.8 72.86 0.002246 0 
755 5 126.2 72.86 -0.010741 0 
766 5 105 85.1 0.007915 0 
785 5 122.5 66.46 0.010073 0 
10 6 148.75 75.78 0 11.5603 
49 6 166.25 75.78 0 11.5603 
50 6 140 90.93 0 12 
104 6 157.5 60.62 0 12 
141 1 143.7 78.69 0.009488 0 
180 1 161.2 72.86 -0.005757 0 
272 2 153.8 72.86 -0.015587 0 
311 2 171.3 78.69 0.020632 0 
312 2 140 85.1 0.008708 0 
403 3 143.7 78.69 -0.0111 0 
442 3 171.3 78.69 -0.014126 0 
534 4 153.8 72.86 -0.005608 0 
573 4 161.2 72.86 -0.009556 0 
624 4 136.3 78.69 0.007924 0 
665 5 143.7 78.69 0.010832 0 
704 5 171.3 78.69 0.000646 0 
759 5 157.5 66.46 -0.001476 0 
62 6 192.5 60.62 0 12 
68 6 175 90.93 0 12 
73 6 210 90.93 0 12 
78 6 201.25 75.78 0 11.5603 
106 6 183.75 75.78 0 11.5603 
193 1 192.5 66.46 -0.000911 0 
199 1 175 85.1 -0.002735 0 
209 1 206.3 78.69 0.001886 0 
237 1 188.8 72.86 0.003973 0 
330 2 175 85.1 -0.008996 0 
340 2 206.3 78.69 -0.003178 0 
368 2 178.7 78.69 -0.010842 0 
455 3 192.5 66.46 0.005096 0 
461 3 175 85.1 -0.005041 0 
466 3 210 85.1 0.004018 0 
471 3 196.2 72.86 -0.002539 0 
499 3 178.7 78.69 -0.009031 0 
592 4 175 85.1 -0.016959 0 
597 4 210 85.1 0.00899 0 
602 4 196.2 72.86 0.008141 0 
630 4 178.7 78.69 0.005929 0 
717 5 192.5 66.46 0.005202 0 
733 5 206.3 78.69 -0.004245 0 
761 5 188.8 72.86 0.007145 0 
16 6 17.5 121.24 0 12 
43 6 -8.75 106.09 0 11.5603 
95 6 8.75 106.09 0 11.5603 
101 6 -17.5 121.24 0 12 
147 1 17.5 115.41 -0.003543 0 
174 1 -13.8 109 -0.008303 0 
226 1 13.8 109 0.007095 0 
232 1 -17.5 127.08 0.014763 0 
278 2 17.5 115.41 -0.033156 0 
305 2 -3.7 103.17 0.004749 0 
357 2 13.8 109 0.008855 0 
363 2 -17.5 115.41 0.0089 0 
409 3 17.5 127.08 0.005809 0 
436 3 -3.7 103.17 0.001355 0 
488 3 13.8 109 0.005112 0 
494 3 -17.5 127.08 0.006945 0 
540 4 17.5 127.08 -0.004386 0 
567 4 -3.7 103.17 0.003136 0 
619 4 3.7 103.17 -0.009841 0 
625 4 -17.5 115.41 -0.00807 0 
671 5 17.5 127.08 0.003114 0 
698 5 -13.8 109 0.00846 0 
750 5 13.8 109 0.000746 0 
756 5 -17.5 115.41 0.021192 0 
30 6 26.25 106.09 0 11.5603 
59 6 52.5 121.24 0 12 
109 6 43.75 106.09 0 11.5603 
161 1 21.2 109 0.0064 0 
190 1 52.5 127.08 0.017249 0 
215 1 56.2 109 -0.005039 0 
240 1 48.8 109 -0.004311 0 
292 2 31.3 103.17 0.006018 0 
321 2 52.5 115.41 0.002548 0 
346 2 56.2 109 -0.006384 0 
348 2 35 96.77 -0.015763 0 
371 2 38.7 103.17 -0.0057 0 
423 3 21.2 109 -0.021426 0 
452 3 52.5 115.41 0.010156 0 
477 3 56.2 109 -0.006543 0 
479 3 35 96.77 -0.009044 0 
502 3 38.7 103.17 0.008266 0 
554 4 31.3 103.17 -0.010913 0 
583 4 52.5 115.41 -0.014086 0 
610 4 35 96.77 0.009474 0 
633 4 38.7 103.17 -0.008055 0 
685 5 31.3 103.17 0.014039 0 
714 5 52.5 115.41 -0.008863 0 
764 5 48.8 109 0.00844 0 
8 6 87.5 121.24 0 12 
84 6 61.25 106.09 0 11.5603 
90 6 78.75 106.09 0 11.5603 
139 1 87.5 127.08 -0.024865 0 
220 1 70 96.77 0.005573 0 
221 1 83.8 109 0.002576 0 
270 2 87.5 127.08 -0.012903 0 
352 2 83.8 109 -0.005956 0 
358 2 91.2 109 0.007925 0 
401 3 87.5 127.08 0.013029 0 
483 3 83.8 109 -0.00772 0 
489 3 91.2 109 -0.001926 0 
532 4 87.5 115.41 0.012512 0 
608 4 66.3 103.17 -0.001746 0 
614 4 73.7 103.17 0.000244 0 
663 5 87.5 127.08 -0.00424 0 
739 5 66.3 103.17 0.005287 0 
745 5 73.7 103.17 -0.001453 0 
47 6 122.5 121.24 0 12 
92 6 131.25 106.09 0 11.5603 
96 6 96.25 106.09 0 11.5603 
119 6 113.75 106.09 0 11.5603 
178 1 122.5 115.41 -0.009925 0 
223 1 126.2 109 -0.007707 0 
227 1 101.3 103.17 0.0046 0 
242 1 105 96.77 0.007224 0 
250 1 118.8 109 0.009768 0 
309 2 122.5 127.08 0.001524 0 
354 2 126.2 109 -0.002309 0 
373 2 105 96.77 0.001745 0 
381 2 108.7 103.17 0.001213 0 
440 3 122.5 127.08 -0.00474 0 
485 3 126.2 109 0.001317 0 
512 3 118.8 109 0.00429 0 
571 4 122.5 127.08 -0.01146 0 
616 4 126.2 109 -0.014343 0 
620 4 101.3 103.17 -0.003002 0 
635 4 105 96.77 -0.002551 0 
643 4 108.7 103.17 0.003701 0 
702 5 122.5 115.41 -0.010287 0 
747 5 126.2 109 -0.0039 0 
751 5 101.3 103.17 0.002329 0 
774 5 118.8 109 -0.002748 0 
1 6 148.75 106.09 0 11.5603 
56 6 157.5 121.24 0 12 
117 6 166.25 106.09 0 11.5603 
132 1 153.8 109 0.007446 0 
181 1 140 96.77 0.003098 0 
187 1 157.5 127.08 -0.00789 0 
248 1 171.3 103.17 -0.014346 0 
263 2 153.8 109 0.011969 0 
318 2 157.5 115.41 -0.018296 0 
379 2 171.3 103.17 0.000384 0 
394 3 143.7 103.17 0.009464 0 
443 3 140 96.77 -0.004219 0 
449 3 157.5 127.08 0.016161 0 
510 3 161.2 109 -0.003955 0 
525 4 153.8 109 0.004976 0 
574 4 140 96.77 0.018608 0 
580 4 157.5 115.41 0.000811 0 
641 4 171.3 103.17 -0.005833 0 
656 5 153.8 109 0.000735 0 
705 5 140 96.77 0.008057 0 
711 5 157.5 115.41 0.005666 0 
772 5 171.3 103.17 -0.002001 0 
3 6 201.25 106.09 0 11.5603 
61 6 192.5 121.24 0 12 
127 6 183.75 106.09 0 11.5603 
134 1 206.3 103.17 -0.002736 0 
192 1 192.5 115.41 0.002856 0 
204 1 210 96.77 -0.002921 0 
258 1 178.7 103.17 -0.013004 0 
265 2 196.2 109 -0.013999 0 
323 2 192.5 115.41 0.009705 0 
335 2 210 96.77 0.00257 0 
389 2 188.8 109 0.000906 0 
396 3 196.2 109 -0.013129 0 
454 3 192.5 127.08 -0.018629 0 
520 3 178.7 103.17 0.012147 0 
527 4 196.2 109 -0.005791 0 
585 4 192.5 127.08 0.01573 0 
651 4 178.7 103.17 0.012842 0 
658 5 206.3 103.17 0.007607 0 
716 5 192.5 127.08 -0.001789 0 
723 5 175 96.77 0.008195 0 
728 5 210 96.77 0.013753 0 
782 5 188.8 109 -0.006828 0 
17 6 -8.75 136.4 0 11.5603 
18 6 0 151.55 0 12 
21 6 8.75 166.71 0 11.5603 
115 6 8.75 136.4 0 11.5603 
148 1 -3.7 139.32 -0.002589 0 
149 1 0 157.39 -0.009511 0 
152 1 3.7 163.79 -0.00456 0 
246 1 13.8 133.48 -0.004198 0 
279 2 -3.7 139.32 0.024254 0 
280 2 -0 145.72 0.000567 0 
283 2 13.8 169.63 0.004072 0 
377 2 3.7 139.32 -0.019166 0 
410 3 -3.7 139.32 -0.015405 0 
411 3 -0 145.72 -0.01415 0 
414 3 13.8 169.63 0.004549 0 
508 3 3.7 139.32 0.001271 0 
541 4 -13.8 133.48 -0.008627 0 
542 4 0 157.39 0.013895 0 
545 4 13.8 169.63 -0.001824 0 
639 4 13.8 133.48 -0.006128 0 
672 5 -3.7 139.32 0.016528 0 
673 5 -0 145.72 0.005539 0 
676 5 13.8 169.63 0.018709 0 
770 5 3.7 139.32 -0.005953 0 
6 6 35 151.55 0 12 
42 6 43.75 136.4 0 11.5603 
53 6 43.75 166.71 0 11.5603 
65 6 26.25 136.4 0 11.5603 
74 6 26.25 166.71 0 11.5603 
137 1 35 157.39 0.006338 0 
173 1 48.8 133.48 -0.010648 0 
184 1 48.8 169.63 -0.004948 0 
196 1 21.2 133.48 0.006336 0 
205 1 21.2 169.63 -0.001038 0 
268 2 35 145.72 -0.005159 0 
304 2 48.8 133.48 0.02003 0 
315 2 48.8 169.63 -0.017344 0 
327 2 21.2 133.48 0.001537 0 
336 2 21.2 169.63 -0.008919 0 
339 2 56.2 169.63 -0.006467 0 
365 2 56.2 133.48 -0.008185 0 
399 3 35 157.39 0.001485 0 
435 3 38.7 139.32 0.024173 0 
446 3 48.8 169.63 -0.011149 0 
458 3 21.2 133.48 0.016049 0 
467 3 31.3 163.79 -0.003522 0 
470 3 56.2 169.63 0.006769 0 
530 4 35 145.72 0.001638 0 
566 4 48.8 133.48 -0.010972 0 
577 4 38.7 163.79 -0.025727 0 
589 4 31.3 139.32 -0.001781 0 
598 4 31.3 163.79 0.002777 0 
601 4 56.2 169.63 0.005199 0 
661 5 35 157.39 0.001509 0 
697 5 48.8 133.48 -0.004718 0 
708 5 38.7 163.79 0.008474 0 
720 5 21.2 133.48 0.004281 0 
729 5 31.3 163.79 0.008409 0 
758 5 56.2 133.48 -0.010526 0 
4 6 78.75 136.4 0 11.5603 
71 6 78.75 166.71 0 11.5603 
77 6 61.25 166.71 0 11.5603 
103 6 61.25 136.4 0 11.5603 
123 6 70 151.55 0 12 
135 1 83.8 133.48 -0.009662 0 
202 1 73.7 163.79 -0.006078 0 
208 1 66.3 163.79 0.004838 0 
234 1 66.3 139.32 -0.010043 0 
254 1 70 145.72 -0.004614 0 
266 2 83.8 133.48 -0.016722 0 
333 2 73.7 163.79 0.002278 0 
385 2 70 145.72 -0.007762 0 
397 3 83.8 133.48 -0.005728 0 
464 3 73.7 163.79 -0.005895 0 
496 3 66.3 139.32 -0.010982 0 
516 3 70 145.72 -0.013752 0 
528 4 73.7 139.32 0.008604 0 
538 4 91.2 133.48 0.004999 0 
595 4 83.8 169.63 0.017236 0 
627 4 66.3 139.32 -0.004995 0 
646 4 91.2 169.63 -0.017007 0 
647 4 70 157.39 -0.018983 0 
659 5 73.7 139.32 0.006296 0 
669 5 91.2 133.48 -0.000879 0 
726 5 73.7 163.79 0.003106 0 
732 5 66.3 163.79 -0.004847 0 
778 5 70 157.39 -0.006463 0 
11 6 131.25 136.4 0 11.5603 
12 6 113.75 166.71 0 11.5603 
14 6 96.25 136.4 0 11.5603 
37 6 131.25 166.71 0 11.5603 
64 6 113.75 136.4 0 11.5603 
108 6 105 151.55 0 12 
122 6 96.25 166.71 0 11.5603 
143 1 108.7 163.79 0.006611 0 
145 1 101.3 139.32 -0.002128 0 
195 1 108.7 139.32 -0.017524 0 
239 1 105 157.39 -0.011523 0 
253 1 101.3 163.79 0.009762 0 
273 2 126.2 133.48 -0.001855 0 
274 2 118.8 169.63 -0.002914 0 
276 2 101.3 139.32 -0.00803 0 
299 2 126.2 169.63 -0.013737 0 
326 2 118.8 133.48 0.004781 0 
370 2 105 157.39 0.017616 0 
384 2 101.3 163.79 -0.00441 0 
404 3 126.2 133.48 0.001653 0 
405 3 118.8 169.63 0.013447 0 
407 3 101.3 139.32 -0.013152 0 
457 3 118.8 133.48 -0.003181 0 
501 3 105 157.39 -0.016362 0 
515 3 101.3 163.79 0.004943 0 
536 4 118.8 169.63 -0.005957 0 
561 4 126.2 169.63 0.004931 0 
588 4 118.8 133.48 -0.001264 0 
632 4 105 157.39 0.003097 0 
666 5 126.2 133.48 0.005765 0 
667 5 118.8 169.63 0.018637 0 
719 5 108.7 139.32 0.010575 0 
763 5 105 157.39 -0.003074 0 
777 5 101.3 163.79 0.017762 0 
32 6 148.75 166.71 0 11.5603 
44 6 148.75 136.4 0 11.5603 
58 6 166.25 166.71 0 11.5603 
107 6 140 151.55 0 12 
120 6 166.25 136.4 0 11.5603 
142 1 136.3 139.32 -0.013022 0 
163 1 143.7 163.79 -0.001216 0 
168 1 136.3 163.79 0.017447 0 
175 1 153.8 133.48 0.009913 0 
189 1 161.2 169.63 -0.00908 0 
238 1 140 145.72 0.005696 0 
251 1 161.2 133.48 -0.006761 0 
294 2 143.7 163.79 0.018806 0 
306 2 143.7 139.32 -0.011804 0 
320 2 161.2 169.63 -0.008077 0 
369 2 140 157.39 -0.007241 0 
382 2 171.3 139.32 0.00584 0 
425 3 153.8 169.63 0.017169 0 
430 3 136.3 163.79 0.002759 0 
437 3 143.7 139.32 0.001269 0 
451 3 161.2 169.63 0.019452 0 
500 3 140 157.39 0.002194 0 
513 3 171.3 139.32 0.002326 0 
535 4 136.3 139.32 -0.012962 0 
556 4 153.8 169.63 -0.007395 0 
568 4 153.8 133.48 0.014236 0 
582 4 161.2 169.63 0.009941 0 
631 4 140 145.72 0.005738 0 
644 4 171.3 139.32 -0.006738 0 
687 5 143.7 163.79 -0.000586 0 
692 5 136.3 163.79 -0.016446 0 
699 5 143.7 139.32 0.002151 0 
713 5 161.2 169.63 -0.002161 0 
762 5 140 145.72 0.00052 0 
775 5 161.2 133.48 0.017841 0 
35 6 183.75 166.71 0 11.5603 
52 6 201.25 136.4 0 11.5603 
75 6 210 151.55 0 12 
87 6 175 151.55 0 12 
110 6 183.75 136.4 0 11.5603 
126 6 201.25 166.71 0 11.5603 
166 1 188.8 169.63 0.010911 0 
183 1 196.2 133.48 -0.008785 0 
206 1 210 157.39 0.002452 0 
218 1 175 157.39 0.010053 0 
241 1 178.7 139.32 -0.01265 0 
257 1 196.2 169.63 -0.023187 0 
297 2 188.8 169.63 -0.007103 0 
314 2 196.2 133.48 -0.003717 0 
337 2 210 157.39 0.006041 0 
349 2 175 157.39 -0.001182 0 
372 2 188.8 133.48 4.8e-05 0 
388 2 196.2 169.63 0.007398 0 
428 3 178.7 163.79 -0.00243 0 
445 3 206.3 139.32 0.012732 0 
468 3 210 157.39 -0.013517 0 
480 3 175 157.39 0.001953 0 
503 3 178.7 139.32 -0.004577 0 
519 3 206.3 163.79 -0.010882 0 
559 4 178.7 163.79 0.003217 0 
576 4 196.2 133.48 -0.002832 0 
599 4 210 157.39 0.013123 0 
611 4 175 157.39 0.012332 0 
634 4 178.7 139.32 0.013683 0 
650 4 206.3 163.79 0.000653 0 
690 5 178.7 163.79 0.000559 0 
707 5 206.3 139.32 -0.009008 0 
730 5 210 145.72 0.004215 0 
742 5 175 157.39 0.011575 0 
765 5 178.7 139.32 -0.007279 0 
781 5 206.3 163.79 0.010678 0 
ITEM: TIMESTEP
100
ITEM: NUMBER OF ATOMS
786
ITEM: BOX BOUNDS ss ss pp
-8.2138575370640916e+04 8.2451465584360034e+04
-3.9251933531712822e+05 3.9267747448585881e+05
-1.7500000000000000e+00 1.7500000000000000e+00
ITEM: ATOMS id type x y z mu 
13 6 -8.75 15.16 0 11.5603 
29 6 17.5 0 0 12 
99 6 -8.75 -15.16 0 11.5603 
112 6 8.75 -15.16 0 11.5603 
113 6 -17.5 0 0 12 
124 6 8.75 15.16 0 11.5603 
144 1 -16.1866 13.3597 0.74351 0.00263647 
160 1 16.0097 -3.12765 0.452489 0.00263647 
230 1 -12.1931 -17.514 0.706844 0.00263647 
243 1 4.69039 -20.9712 0.189932 0.00263647 
244 1 -21.4316 -3.77865 -0.485554 0.00263647 
255 1 7.88099 14.1279 -0.460651 0.00263647 
275 2 -2.03217 12.5993 0.477771 0.00263647 
291 2 16.6456 11.7461 -0.00331959 0.00263647 
361 2 -12.329 -18.6287 0.0231362 0.00263647 
374 2 5.05083 -19.9291 0.0456815 0.00263647 
375 2 -21.0596 -4.45483 -0.604611 0.00263647 
386 2 -14.4585 17.676 0.26322 0.00263647 
406 3 -19.6802 -3.88904 -0.362495 0.00263647 
422 3 -1.76638 21.8356 0.399145 0.00263647 
492 3 1.9362 -25.1644 0.122671 0.00263647 
505 3 -0.549942 -11.6352 -0.414778 0.00263647 
506 3 -14.0963 7.49221 -0.177078 0.00263647 
517 3 7.25719 15.394 0.730561 0.00263647 
537 4 -15.7186 12.7508 -0.160822 0.00263647 
553 4 6.90084 1.82307 -1.09255 0.00263647 
623 4 -13.2492 -15.0026 0.442352 0.00263647 
636 4 7.90041 -18.0423 -0.533465 0.00263647 
637 4 -7.6033 -82.1189 -0.586557 0.00263647 
648 4 22.0111 -2.91896 -0.300235 0.00263647 
668 5 -15.9354 13.1063 -0.750323 0.00263647 
684 5 -9.25975 -21.4725 -0.094448 0.00263647 
754 5 46.9037 99.0151 0.143697 0.00263647 
767 5 -32.6069 -127.132 1.04161 0.00263647 
768 5 -20.1637 -5.86407 0.534549 0.00263647 
779 5 2.5227 17.1212 0.381191 0.00263647 
20 6 26.25 15.16 0 11.5603 
28 6 43.75 -15.16 0 11.5603 
60 6 43.75 15.16 0 11.5603 
69 6 52.5 0 0 12 
105 6 26.25 -15.16 0 11.5603 
151 1 25.6883 14.1088 -0.143486 0.00263647 
159 1 -456.994 -359.232 0.562467 0.00263647 
191 1 541.195 343.411 0.313532 0.00263647 
200 1 54.3018 -8.17619 0.242775 0.00263647 
212 1 64.648 -23.2297 -0.519662 0.00263647 
236 1 27.6653 -18.1259 -0.0973994 0.00263647 
282 2 20.9006 -0.515851 0.0615767 0.00263647 
290 2 42.6314 -9.38508 0.0398974 0.00263647 
322 2 40.3638 16.7911 0.927393 0.00263647 
331 2 57.2586 -7.2424 -0.173886 0.00263647 
367 2 30.8025 -21.3527 -0.438197 0.00263647 
380 2 74.8483 24.6965 0.054745 0.00263647 
413 3 21.9229 11.083 -0.793116 0.00263647 
421 3 56.7974 -5.62916 -0.108953 0.00263647 
453 3 41.8659 2.37365 0.272686 0.00263647 
462 3 47.7047 -72.2728 -0.248291 0.00263647 
474 3 54.2614 -19.1005 -0.128718 0.00263647 
498 3 39.606 -35.1611 0.421959 0.00263647 
544 4 33.4097 19.0822 -0.279774 0.00263647 
552 4 42.133 -19.3839 1.02572 0.00263647 
584 4 40.622 3.64971 0.176205 0.00263647 
593 4 55.6578 -6.14921 0.354234 0.00263647 
605 4 66.6049 -25.9781 -0.322698 0.00263647 
629 4 14.1666 13.0856 -0.617357 0.00263647 
642 4 75.2077 -5.78892 -0.0584793 0.00263647 
675 5 38.0636 19.137 0.988221 0.00263647 
683 5 45.2396 -17.0993 0.411763 0.00263647 
715 5 29.7755 7.75969 -0.214754 0.00263647 
724 5 48.1916 3.61847 -0.28488 0.00263647 
736 5 66.2284 -20.3118 -0.955552 0.00263647 
760 5 28.7076 -20.8677 -0.293243 0.00263647 
773 5 62.4992 5.91239 -0.331346 0.00263647 
19 6 87.5 0 0 12 
24 6 78.75 -15.16 0 11.5603 
81 6 61.25 -15.16 0 11.5603 
82 6 78.75 15.16 0 11.5603 
118 6 61.25 15.16 0 11.5603 
150 1 90.6916 6.38942 -0.13875 0.00263647 
155 1 80.7665 -18.7504 -0.359014 0.00263647 
213 1 80.3848 21.9806 1.14131 0.00263647 
249 1 48.1409 7.22003 -0.256221 0.00263647 
281 2 88.1788 6.1077 0.548552 0.00263647 
286 2 83.5353 -12.9656 0.515364 0.00263647 
317 2 100.464 -16.9161 -1.29894 0.00263647 
343 2 67.0375 -22.8649 0.29547 0.00263647 
344 2 69.1009 12.8581 0.908365 0.00263647 
412 3 87.5132 -14.7138 -0.94795 0.00263647 
417 3 73.2363 -23.6879 -0.78116 0.00263647 
463 3 94.047 14.3687 0.594084 0.00263647 
475 3 70.4854 20.1774 0.174089 0.00263647 
511 3 53.3207 13.6727 0.0513961 0.00263647 
543 4 87.6635 -16.6949 -0.434724 0.00263647 
548 4 76.1878 -8.30778 -0.638692 0.00263647 
594 4 90.4509 11.7111 -0.548505 0.00263647 
606 4 115.143 -7.61741 -0.00348081 0.00263647 
674 5 87.029 -8.33039 0.228371 0.00263647 
679 5 72.674 8.06504 0.0875576 0.00263647 
737 5 85.3188 12.4045 0.326414 0.00263647 
25 6 113.75 15.16 0 11.5603 
51 6 131.25 -15.16 0 11.5603 
55 6 96.25 -15.16 0 11.5603 
66 6 113.75 -15.16 0 11.5603 
70 6 96.25 15.16 0 11.5603 
76 6 131.25 15.16 0 11.5603 
116 6 122.5 0 0 12 
156 1 92.9274 6.19385 -0.00541816 0.00263647 
186 1 100.401 -16.911 0.386497 0.00263647 
197 1 84.8884 -4.61916 -0.282386 0.00263647 
201 1 102.793 18.0613 -0.232163 0.00263647 
207 1 443.309 -195.585 0.645736 0.00263647 
247 1 -198.781 194.672 -0.234602 0.00263647 
287 2 117.557 10.7828 0.255287 0.00263647 
313 2 135.247 -20.3665 0.110928 0.00263647 
328 2 111.859 -26.3117 0.222715 0.00263647 
332 2 101.625 18.9365 0.27525 0.00263647 
338 2 24.4312 48.0106 -0.173443 0.00263647 
378 2 128.895 0.678287 0.645282 0.00263647 
418 3 134.206 -0.957944 -0.687469 0.00263647 
448 3 88.7828 -3.23981 0.0295848 0.00263647 
459 3 104.171 -20.8483 -0.533045 0.00263647 
469 3 143.558 22.6226 0.468011 0.00263647 
509 3 125.994 8.33465 -0.200792 0.00263647 
549 4 -23.7215 149.221 -0.507591 0.00263647 
579 4 99.9328 -9.81161 0.821603 0.00263647 
590 4 126.287 8.5168 0.083219 0.00263647 
600 4 121.603 -22.3079 -0.746291 0.00263647 
640 4 111.074 10.9247 -0.0204003 0.00263647 
680 5 112.751 13.7689 -0.182246 0.00263647 
710 5 114.114 -43.402 -0.00929152 0.00263647 
721 5 107.373 -19.7411 -0.391824 0.00263647 
725 5 -129.068 115.112 -0.186848 0.00263647 
771 5 123.482 -15.8516 1.10289 0.00263647 
40 6 166.25 -15.16 0 11.5603 
41 6 148.75 15.16 0 11.5603 
83 6 148.75 -15.16 0 11.5603 
97 6 166.25 15.16 0 11.5603 
121 6 157.5 0 0 12 
171 1 163.119 -13.5791 -0.00336343 0.00263647 
172 1 143.245 19.0317 -0.832942 0.00263647 
182 1 130.454 -18.4646 0.748984 0.00263647 
214 1 146.061 -21.5579 0.00125155 0.00263647 
228 1 171.26 18.3182 0.363131 0.00263647 
252 1 157.04 5.22634 -0.210829 0.00263647 
302 2 168.048 -24.6456 -0.302965 0.00263647 
303 2 145.628 18.5383 -0.409832 0.00263647 
345 2 159.524 -10.6199 0.0316838 0.00263647 
359 2 164.441 13.7216 -0.220678 0.00263647 
383 2 212.311 -33.0418 -0.0942094 0.00263647 
433 3 169.255 -21.9262 0.236889 0.00263647 
434 3 149.198 8.91367 0.832332 0.00263647 
444 3 139.644 -16.6619 -0.2618 0.00263647 
476 3 104.416 -44.2154 -0.0286925 0.00263647 
490 3 165.698 13.2015 -0.462375 0.00263647 
514 3 158.269 -7.02245 0.143051 0.00263647 
564 4 174.07 -29.7875 -1.09332 0.00263647 
565 4 142.651 10.9863 0.593816 0.00263647 