This is the initial atom setup of test.lmpdin
678 atoms
2 atom types
339 bonds
339 bond types
-27.5 360.0 xlo xhi
-25.1554445662 297.953446758 ylo yhi
-10.0 10.0 zlo zhi
        
Atoms

1	 1	 17.5	 5.0	 0.1	 10.3	 5.791406870113644e-05	 0.0	 0	 0	 0	 0.0576	 1
2	 1	 52.5	 -5.0	 0.1	 10.3	 5.791406870113644e-05	 0.0	 0	 0	 0	 0.0576	 2
3	 1	 87.5	 5.0	 0.1	 10.3	 5.791406870113644e-05	 0.0	 0	 0	 0	 0.0576	 3
4	 1	 122.5	 5.0	 0.1	 10.3	 5.791406870113644e-05	 0.0	 0	 0	 0	 0.0576	 4
5	 1	 157.5	 -5.0	 0.1	 10.3	 5.791406870113644e-05	 0.0	 0	 0	 0	 0.0576	 5
6	 1	 192.5	 5.0	 0.1	 10.3	 5.791406870113644e-05	 0.0	 0	 0	 0	 0.0576	 6
7	 1	 227.5	 5.0	 0.1	 10.3	 5.791406870113644e-05	 0.0	 0	 0	 0	 0.0576	 7
8	 1	 262.5	 -5.0	 0.1	 10.3	 5.791406870113644e-05	 0.0	 0	 0	 0	 0.0576	 8
9	 1	 297.5	 -5.0	 0.1	 10.3	 5.791406870113644e-05	 0.0	 0	 0	 0	 0.0576	 9
10	 1	 332.5	 -5.0	 0.1	 10.3	 5.791406870113644e-05	 0.0	 0	 0	 0	 0.0576	 10
11	 1	 35.0	 25.3108891325	 0.1	 10.3	 5.791406870113644e-05	 0.0	 0	 0	 0	 0.0576	 11
12	 1	 70.0	 35.3108891325	 0.1	 10.3	 5.791406870113644e-05	 0.0	 0	 0	 0	 0.0576	 12
13	 1	 105.0	 35.3108891325	 0.1	 10.3	 5.791406870113644e-05	 0.0	 0	 0	 0	 0.0576	 13
14	 1	 140.0	 35.3108891325	 0.1	 10.3	 5.791406870113644e-05	 0.0	 0	 0	 0	 0.0576	 14
15	 1	 175.0	 35.3108891325	 0.1	 10.3	 5.791406870113644e-05	 0.0	 0	 0	 0	 0.0576	 15
16	 1	 210.0	 35.3108891325	 0.1	 10.3	 5.791406870113644e-05	 0.0	 0	 0	 0	 0.0576	 16
17	 1	 245.0	 35.3108891325	 0.1	 10.3	 5.791406870113644e-05	 0.0	 0	 0	 0	 0.0576	 17
18	 1	 280.0	 25.3108891325	 0.1	 10.3	 5.791406870113644e-05	 0.0	 0	 0	 0	 0.0576	 18
19	 1	 315.0	 25.3108891325	 0.1	 10.3	 5.791406870113644e-05	 0.0	 0	 0	 0	 0.0576	 19
20	 1	 350.0	 25.3108891325	 0.1	 10.3	 5.791406870113644e-05	 0.0	 0	 0	 0	 0.0576	 20
21	 1	 52.5	 65.6217782649	 0.1	 10.3	 5.791406870113644e-05	 0.0	 0	 0	 0	 0.0576	 21
22	 1	 87.5	 65.6217782649	 0.1	 10.3	 5.791406870113644e-05	 0.0	 0	 0	 0	 0.0576	 22
23	 1	 122.5	 65.6217782649	 0.1	 10.3	 5.791406870113644e-05	 0.0	 0	 0	 0	 0.0576	 23
24	 1	 157.5	 65.6217782649	 0.1	 10.3	 5.791406870113644e-05	 0.0	 0	 0	 0	 0.0576	 24
25	 1	 192.5	 65.6217782649	 0.1	 10.3	 5.791406870113644e-05	 0.0	 0	 0	 0	 0.0576	 25
26	 1	 227.5	 65.6217782649	 0.1	 10.3	 5.791406870113644e-05	 0.0	 0	 0	 0	 0.0576	 26
27	 1	 262.5	 55.6217782649	 0.1	 10.3	 5.791406870113644e-05	 0.0	 0	 0	 0	 0.0576	 27
28	 1	 297.5	 65.6217782649	 0.1	 10.3	 5.791406870113644e-05	 0.0	 0	 0	 0	 0.0576	 28
29	 1	 332.5	 55.6217782649	 0.1	 10.3	 5.791406870113644e-05	 0.0	 0	 0	 0	 0.0576	 29
30	 1	 17.5	 65.6217782649	 0.1	 10.3	 5.791406870113644e-05	 0.0	 0	 0	 0	 0.0576	 30
31	 1	 70.0	 95.9326673974	 0.1	 10.3	 5.791406870113644e-05	 0.0	 0	 0	 0	 0.0576	 31
32	 1	 105.0	 95.9326673974	 0.1	 10.3	 5.791406870113644e-05	 0.0	 0	 0	 0	 0.0576	 32
33	 1	 140.0	 85.9326673974	 0.1	 10.3	 5.791406870113644e-05	 0.0	 0	 0	 0	 0.0576	 33
34	 1	 175.0	 85.9326673974	 0.1	 10.3	 5.791406870113644e-05	 0.0	 0	 0	 0	 0.0576	 34
35	 1	 210.0	 95.9326673974	 0.1	 10.3	 5.791406870113644e-05	 0.0	 0	 0	 0	 0.0576	 35
36	 1	 245.0	 95.9326673974	 0.1	 10.3	 5.791406870113644e-05	 0.0	 0	 0	 0	 0.0576	 36
37	 1	 280.0	 85.9326673974	 0.1	 10.3	 5.791406870113644e-05	 0.0	 0	 0	 0	 0.0576	 37
38	 1	 315.0	 85.9326673974	 0.1	 10.3	 5.791406870113644e-05	 0.0	 0	 0	 0	 0.0576	 38
39	 1	 350.0	 85.9326673974	 0.1	 10.3	 5.791406870113644e-05	 0.0	 0	 0	 0	 0.0576	 39
40	 1	 35.0	 85.9326673974	 0.1	 10.3	 5.791406870113644e-05	 0.0	 0	 0	 0	 0.0576	 40
41	 1	 87.5	 116.24355653	 0.1	 10.3	 5.791406870113644e-05	 0.0	 0	 0	 0	 0.0576	 41
42	 1	 122.5	 126.24355653	 0.1	 10.3	 5.791406870113644e-05	 0.0	 0	 0	 0	 0.0576	 42
43	 1	 157.5	 116.24355653	 0.1	 10.3	 5.791406870113644e-05	 0.0	 0	 0	 0	 0.0576	 43
44	 1	 192.5	 126.24355653	 0.1	 10.3	 5.791406870113644e-05	 0.0	 0	 0	 0	 0.0576	 44
45	 1	 227.5	 116.24355653	 0.1	 10.3	 5.791406870113644e-05	 0.0	 0	 0	 0	 0.0576	 45
46	 1	 262.5	 126.24355653	 0.1	 10.3	 5.791406870113644e-05	 0.0	 0	 0	 0	 0.0576	 46
47	 1	 297.5	 116.24355653	 0.1	 10.3	 5.791406870113644e-05	 0.0	 0	 0	 0	 0.0576	 47
48	 1	 332.5	 126.24355653	 0.1	 10.3	 5.791406870113644e-05	 0.0	 0	 0	 0	 0.0576	 48
49	 1	 17.5	 116.24355653	 0.1	 10.3	 5.791406870113644e-05	 0.0	 0	 0	 0	 0.0576	 49
50	 1	 52.5	 126.24355653	 0.1	 10.3	 5.791406870113644e-05	 0.0	 0	 0	 0	 0.0576	 50
51	 1	 105.0	 156.554445662	 0.1	 10.3	 5.791406870113644e-05	 0.0	 0	 0	 0	 0.0576	 51
52	 1	 140.0	 156.554445662	 0.1	 10.3	 5.791406870113644e-05	 0.0	 0	 0	 0	 0.0576	 52
53	 1	 175.0	 156.554445662	 0.1	 10.3	 5.791406870113644e-05	 0.0	 0	 0	 0	 0.0576	 53
54	 1	 210.0	 146.554445662	 0.1	 10.3	 5.791406870113644e-05	 0.0	 0	 0	 0	 0.0576	 54
55	 1	 245.0	 156.554445662	 0.1	 10.3	 5.791406870113644e-05	 0.0	 0	 0	 0	 0.0576	 55
56	 1	 280.0	 156.554445662	 0.1	 10.3	 5.791406870113644e-05	 0.0	 0	 0	 0	 0.0576	 56
57	 1	 315.0	 156.554445662	 0.1	 10.3	 5.791406870113644e-05	 0.0	 0	 0	 0	 0.0576	 57
58	 1	 350.0	 156.554445662	 0.1	 10.3	 5.791406870113644e-05	 0.0	 0	 0	 0	 0.0576	 58
59	 1	 35.0	 156.554445662	 0.1	 10.3	 5.791406870113644e-05	 0.0	 0	 0	 0	 0.0576	 59
60	 1	 70.0	 156.554445662	 0.1	 10.3	 5.791406870113644e-05	 0.0	 0	 0	 0	 0.0576	 60
61	 1	 122.5	 176.865334795	 0.1	 10.3	 5.791406870113644e-05	 0.0	 0	 0	 0	 0.0576	 61
62	 1	 157.5	 176.865334795	 0.1	 10.3	 5.791406870113644e-05	 0.0	 0	 0	 0	 0.0576	 62
63	 1	 192.5	 186.865334795	 0.1	 10.3	 5.791406870113644e-05	 0.0	 0	 0	 0	 0.0576	 63
64	 1	 227.5	 186.865334795	 0.1	 10.3	 5.791406870113644e-05	 0.0	 0	 0	 0	 0.0576	 64
65	 1	 262.5	 176.865334795	 0.1	 10.3	 5.791406870113644e-05	 0.0	 0	 0	 0	 0.0576	 65
66	 1	 297.5	 176.865334795	 0.1	 10.3	 5.791406870113644e-05	 0.0	 0	 0	 0	 0.0576	 66
67	 1	 332.5	 186.865334795	 0.1	 10.3	 5.791406870113644e-05	 0.0	 0	 0	 0	 0.0576	 67
68	 1	 17.5	 186.865334795	 0.1	 10.3	 5.791406870113644e-05	 0.0	 0	 0	 0	 0.0576	 68
69	 1	 52.5	 186.865334795	 0.1	 10.3	 5.791406870113644e-05	 0.0	 0	 0	 0	 0.0576	 69
70	 1	 87.5	 186.865334795	 0.1	 10.3	 5.791406870113644e-05	 0.0	 0	 0	 0	 0.0576	 70
71	 1	 140.0	 207.176223927	 0.1	 10.3	 5.791406870113644e-05	 0.0	 0	 0	 0	 0.0576	 71
72	 1	 175.0	 217.176223927	 0.1	 10.3	 5.791406870113644e-05	 0.0	 0	 0	 0	 0.0576	 72
73	 1	 210.0	 217.176223927	 0.1	 10.3	 5.791406870113644e-05	 0.0	 0	 0	 0	 0.0576	 73
74	 1	 245.0	 207.176223927	 0.1	 10.3	 5.791406870113644e-05	 0.0	 0	 0	 0	 0.0576	 74
75	 1	 280.0	 217.176223927	 0.1	 10.3	 5.791406870113644e-05	 0.0	 0	 0	 0	 0.0576	 75
76	 1	 315.0	 207.176223927	 0.1	 10.3	 5.791406870113644e-05	 0.0	 0	 0	 0	 0.0576	 76
77	 1	 350.0	 217.176223927	 0.1	 10.3	 5.791406870113644e-05	 0.0	 0	 0	 0	 0.0576	 77
78	 1	 35.0	 217.176223927	 0.1	 10.3	 5.791406870113644e-05	 0.0	 0	 0	 0	 0.0576	 78
79	 1	 70.0	 217.176223927	 0.1	 10.3	 5.791406870113644e-05	 0.0	 0	 0	 0	 0.0576	 79
80	 1	 105.0	 217.176223927	 0.1	 10.3	 5.791406870113644e-05	 0.0	 0	 0	 0	 0.0576	 80
81	 1	 157.5	 247.48711306	 0.1	 10.3	 5.791406870113644e-05	 0.0	 0	 0	 0	 0.0576	 81
82	 1	 192.5	 247.48711306	 0.1	 10.3	 5.791406870113644e-05	 0.0	 0	 0	 0	 0.0576	 82
83	 1	 227.5	 237.48711306	 0.1	 10.3	 5.791406870113644e-05	 0.0	 0	 0	 0	 0.0576	 83
84	 1	 262.5	 247.48711306	 0.1	 10.3	 5.791406870113644e-05	 0.0	 0	 0	 0	 0.0576	 84
85	 1	 297.5	 247.48711306	 0.1	 10.3	 5.791406870113644e-05	 0.0	 0	 0	 0	 0.0576	 85
86	 1	 332.5	 237.48711306	 0.1	 10.3	 5.791406870113644e-05	 0.0	 0	 0	 0	 0.0576	 86
87	 1	 17.5	 237.48711306	 0.1	 10.3	 5.791406870113644e-05	 0.0	 0	 0	 0	 0.0576	 87
88	 1	 52.5	 247.48711306	 0.1	 10.3	 5.791406870113644e-05	 0.0	 0	 0	 0	 0.0576	 88
89	 1	 87.5	 237.48711306	 0.1	 10.3	 5.791406870113644e-05	 0.0	 0	 0	 0	 0.0576	 89
90	 1	 122.5	 247.48711306	 0.1	 10.3	 5.791406870113644e-05	 0.0	 0	 0	 0	 0.0576	 90
91	 1	 175.0	 277.798002192	 0.1	 10.3	 5.791406870113644e-05	 0.0	 0	 0	 0	 0.0576	 91
92	 1	 210.0	 277.798002192	 0.1	 10.3	 5.791406870113644e-05	 0.0	 0	 0	 0	 0.0576	 92
93	 1	 245.0	 277.798002192	 0.1	 10.3	 5.791406870113644e-05	 0.0	 0	 0	 0	 0.0576	 93
94	 1	 280.0	 267.798002192	 0.1	 10.3	 5.791406870113644e-05	 0.0	 0	 0	 0	 0.0576	 94
95	 1	 315.0	 267.798002192	 0.1	 10.3	 5.791406870113644e-05	 0.0	 0	 0	 0	 0.0576	 95
96	 1	 350.0	 277.798002192	 0.1	 10.3	 5.791406870113644e-05	 0.0	 0	 0	 0	 0.0576	 96
97	 1	 35.0	 267.798002192	 0.1	 10.3	 5.791406870113644e-05	 0.0	 0	 0	 0	 0.0576	 97
98	 1	 70.0	 277.798002192	 0.1	 10.3	 5.791406870113644e-05	 0.0	 0	 0	 0	 0.0576	 98
99	 1	 105.0	 267.798002192	 0.1	 10.3	 5.791406870113644e-05	 0.0	 0	 0	 0	 0.0576	 99
100	 1	 140.0	 277.798002192	 0.1	 10.3	 5.791406870113644e-05	 0.0	 0	 0	 0	 0.0576	 100
101	 1	 4.41987298108	 17.6554445662	 0.1	 10.3	 5.791406870113644e-05	 0.0	 0	 0	 0	 0.0576	 101
102	 1	 48.0801270189	 12.6554445662	 0.1	 10.3	 5.791406870113644e-05	 0.0	 0	 0	 0	 0.0576	 102
103	 1	 83.0801270189	 12.6554445662	 0.1	 10.3	 5.791406870113644e-05	 0.0	 0	 0	 0	 0.0576	 103
104	 1	 109.419872981	 17.6554445662	 0.1	 10.3	 5.791406870113644e-05	 0.0	 0	 0	 0	 0.0576	 104
105	 1	 144.419872981	 17.6554445662	 0.1	 10.3	 5.791406870113644e-05	 0.0	 0	 0	 0	 0.0576	 105
106	 1	 188.080127019	 12.6554445662	 0.1	 10.3	 5.791406870113644e-05	 0.0	 0	 0	 0	 0.0576	 106
107	 1	 214.419872981	 17.6554445662	 0.1	 10.3	 5.791406870113644e-05	 0.0	 0	 0	 0	 0.0576	 107
108	 1	 258.080127019	 12.6554445662	 0.1	 10.3	 5.791406870113644e-05	 0.0	 0	 0	 0	 0.0576	 108
109	 1	 284.419872981	 17.6554445662	 0.1	 10.3	 5.791406870113644e-05	 0.0	 0	 0	 0	 0.0576	 109
110	 1	 328.080127019	 12.6554445662	 0.1	 10.3	 5.791406870113644e-05	 0.0	 0	 0	 0	 0.0576	 110
111	 1	 21.9198729811	 47.9663336987	 0.1	 10.3	 5.791406870113644e-05	 0.0	 0	 0	 0	 0.0576	 111
112	 1	 56.9198729811	 47.9663336987	 0.1	 10.3	 5.791406870113644e-05	 0.0	 0	 0	 0	 0.0576	 112
113	 1	 100.580127019	 42.9663336987	 0.1	 10.3	 5.791406870113644e-05	 0.0	 0	 0	 0	 0.0576	 113
114	 1	 135.580127019	 42.9663336987	 0.1	 10.3	 5.791406870113644e-05	 0.0	 0	 0	 0	 0.0576	 114
115	 1	 170.580127019	 42.9663336987	 0.1	 10.3	 5.791406870113644e-05	 0.0	 0	 0	 0	 0.0576	 115
116	 1	 196.919872981	 47.9663336987	 0.1	 10.3	 5.791406870113644e-05	 0.0	 0	 0	 0	 0.0576	 116
117	 1	 231.919872981	 47.9663336987	 0.1	 10.3	 5.791406870113644e-05	 0.0	 0	 0	 0	 0.0576	 117
118	 1	 266.919872981	 47.9663336987	 0.1	 10.3	 5.791406870113644e-05	 0.0	 0	 0	 0	 0.0576	 118
119	 1	 310.580127019	 42.9663336987	 0.1	 10.3	 5.791406870113644e-05	 0.0	 0	 0	 0	 0.0576	 119
120	 1	 345.580127019	 42.9663336987	 0.1	 10.3	 5.791406870113644e-05	 0.0	 0	 0	 0	 0.0576	 120
121	 1	 39.4198729811	 78.2772228311	 0.1	 10.3	 5.791406870113644e-05	 0.0	 0	 0	 0	 0.0576	 121
122	 1	 83.0801270189	 73.2772228311	 0.1	 10.3	 5.791406870113644e-05	 0.0	 0	 0	 0	 0.0576	 122
123	 1	 118.080127019	 73.2772228311	 0.1	 10.3	 5.791406870113644e-05	 0.0	 0	 0	 0	 0.0576	 123
124	 1	 153.080127019	 73.2772228311	 0.1	 10.3	 5.791406870113644e-05	 0.0	 0	 0	 0	 0.0576	 124
125	 1	 179.419872981	 78.2772228311	 0.1	 10.3	 5.791406870113644e-05	 0.0	 0	 0	 0	 0.0576	 125
126	 1	 223.080127019	 73.2772228311	 0.1	 10.3	 5.791406870113644e-05	 0.0	 0	 0	 0	 0.0576	 126
127	 1	 249.419872981	 78.2772228311	 0.1	 10.3	 5.791406870113644e-05	 0.0	 0	 0	 0	 0.0576	 127
128	 1	 284.419872981	 78.2772228311	 0.1	 10.3	 5.791406870113644e-05	 0.0	 0	 0	 0	 0.0576	 128
129	 1	 319.419872981	 78.2772228311	 0.1	 10.3	 5.791406870113644e-05	 0.0	 0	 0	 0	 0.0576	 129
130	 1	 4.41987298108	 78.2772228311	 0.1	 10.3	 5.791406870113644e-05	 0.0	 0	 0	 0	 0.0576	 130
131	 1	 56.9198729811	 108.588111964	 0.1	 10.3	 5.791406870113644e-05	 0.0	 0	 0	 0	 0.0576	 131
132	 1	 91.9198729811	 108.588111964	 0.1	 10.3	 5.791406870113644e-05	 0.0	 0	 0	 0	 0.0576	 132
133	 1	 126.919872981	 108.588111964	 0.1	 10.3	 5.791406870113644e-05	 0.0	 0	 0	 0	 0.0576	 133
134	 1	 161.919872981	 108.588111964	 0.1	 10.3	 5.791406870113644e-05	 0.0	 0	 0	 0	 0.0576	 134
135	 1	 196.919872981	 108.588111964	 0.1	 10.3	 5.791406870113644e-05	 0.0	 0	 0	 0	 0.0576	 135
136	 1	 240.580127019	 103.588111964	 0.1	 10.3	 5.791406870113644e-05	 0.0	 0	 0	 0	 0.0576	 136
137	 1	 266.919872981	 108.588111964	 0.1	 10.3	 5.791406870113644e-05	 0.0	 0	 0	 0	 0.0576	 137
138	 1	 310.580127019	 103.588111964	 0.1	 10.3	 5.791406870113644e-05	 0.0	 0	 0	 0	 0.0576	 138
139	 1	 345.580127019	 103.588111964	 0.1	 10.3	 5.791406870113644e-05	 0.0	 0	 0	 0	 0.0576	 139
140	 1	 30.5801270189	 103.588111964	 0.1	 10.3	 5.791406870113644e-05	 0.0	 0	 0	 0	 0.0576	 140
141	 1	 74.4198729811	 138.899001096	 0.1	 10.3	 5.791406870113644e-05	 0.0	 0	 0	 0	 0.0576	 141
142	 1	 109.419872981	 138.899001096	 0.1	 10.3	 5.791406870113644e-05	 0.0	 0	 0	 0	 0.0576	 142
143	 1	 144.419872981	 138.899001096	 0.1	 10.3	 5.791406870113644e-05	 0.0	 0	 0	 0	 0.0576	 143
144	 1	 179.419872981	 138.899001096	 0.1	 10.3	 5.791406870113644e-05	 0.0	 0	 0	 0	 0.0576	 144
145	 1	 214.419872981	 138.899001096	 0.1	 10.3	 5.791406870113644e-05	 0.0	 0	 0	 0	 0.0576	 145
146	 1	 249.419872981	 138.899001096	 0.1	 10.3	 5.791406870113644e-05	 0.0	 0	 0	 0	 0.0576	 146
147	 1	 284.419872981	 138.899001096	 0.1	 10.3	 5.791406870113644e-05	 0.0	 0	 0	 0	 0.0576	 147
148	 1	 319.419872981	 138.899001096	 0.1	 10.3	 5.791406870113644e-05	 0.0	 0	 0	 0	 0.0576	 148
149	 1	 13.0801270189	 133.899001096	 0.1	 10.3	 5.791406870113644e-05	 0.0	 0	 0	 0	 0.0576	 149
150	 1	 39.4198729811	 138.899001096	 0.1	 10.3	 5.791406870113644e-05	 0.0	 0	 0	 0	 0.0576	 150
151	 1	 100.580127019	 164.209890229	 0.1	 10.3	 5.791406870113644e-05	 0.0	 0	 0	 0	 0.0576	 151
152	 1	 135.580127019	 164.209890229	 0.1	 10.3	 5.791406870113644e-05	 0.0	 0	 0	 0	 0.0576	 152
153	 1	 170.580127019	 164.209890229	 0.1	 10.3	 5.791406870113644e-05	 0.0	 0	 0	 0	 0.0576	 153
154	 1	 205.580127019	 164.209890229	 0.1	 10.3	 5.791406870113644e-05	 0.0	 0	 0	 0	 0.0576	 154
155	 1	 240.580127019	 164.209890229	 0.1	 10.3	 5.791406870113644e-05	 0.0	 0	 0	 0	 0.0576	 155
156	 1	 266.919872981	 169.209890229	 0.1	 10.3	 5.791406870113644e-05	 0.0	 0	 0	 0	 0.0576	 156
157	 1	 310.580127019	 164.209890229	 0.1	 10.3	 5.791406870113644e-05	 0.0	 0	 0	 0	 0.0576	 157
158	 1	 336.919872981	 169.209890229	 0.1	 10.3	 5.791406870113644e-05	 0.0	 0	 0	 0	 0.0576	 158
159	 1	 30.5801270189	 164.209890229	 0.1	 10.3	 5.791406870113644e-05	 0.0	 0	 0	 0	 0.0576	 159
160	 1	 65.5801270189	 164.209890229	 0.1	 10.3	 5.791406870113644e-05	 0.0	 0	 0	 0	 0.0576	 160
161	 1	 109.419872981	 199.520779361	 0.1	 10.3	 5.791406870113644e-05	 0.0	 0	 0	 0	 0.0576	 161
162	 1	 153.080127019	 194.520779361	 0.1	 10.3	 5.791406870113644e-05	 0.0	 0	 0	 0	 0.0576	 162
163	 1	 188.080127019	 194.520779361	 0.1	 10.3	 5.791406870113644e-05	 0.0	 0	 0	 0	 0.0576	 163
164	 1	 223.080127019	 194.520779361	 0.1	 10.3	 5.791406870113644e-05	 0.0	 0	 0	 0	 0.0576	 164
165	 1	 249.419872981	 199.520779361	 0.1	 10.3	 5.791406870113644e-05	 0.0	 0	 0	 0	 0.0576	 165
166	 1	 293.080127019	 194.520779361	 0.1	 10.3	 5.791406870113644e-05	 0.0	 0	 0	 0	 0.0576	 166
167	 1	 328.080127019	 194.520779361	 0.1	 10.3	 5.791406870113644e-05	 0.0	 0	 0	 0	 0.0576	 167
168	 1	 4.41987298108	 199.520779361	 0.1	 10.3	 5.791406870113644e-05	 0.0	 0	 0	 0	 0.0576	 168
169	 1	 39.4198729811	 199.520779361	 0.1	 10.3	 5.791406870113644e-05	 0.0	 0	 0	 0	 0.0576	 169
170	 1	 74.4198729811	 199.520779361	 0.1	 10.3	 5.791406870113644e-05	 0.0	 0	 0	 0	 0.0576	 170
171	 1	 135.580127019	 224.831668493	 0.1	 10.3	 5.791406870113644e-05	 0.0	 0	 0	 0	 0.0576	 171
172	 1	 170.580127019	 224.831668493	 0.1	 10.3	 5.791406870113644e-05	 0.0	 0	 0	 0	 0.0576	 172
173	 1	 196.919872981	 229.831668493	 0.1	 10.3	 5.791406870113644e-05	 0.0	 0	 0	 0	 0.0576	 173
174	 1	 240.580127019	 224.831668493	 0.1	 10.3	 5.791406870113644e-05	 0.0	 0	 0	 0	 0.0576	 174
175	 1	 266.919872981	 229.831668493	 0.1	 10.3	 5.791406870113644e-05	 0.0	 0	 0	 0	 0.0576	 175
176	 1	 310.580127019	 224.831668493	 0.1	 10.3	 5.791406870113644e-05	 0.0	 0	 0	 0	 0.0576	 176
177	 1	 336.919872981	 229.831668493	 0.1	 10.3	 5.791406870113644e-05	 0.0	 0	 0	 0	 0.0576	 177
178	 1	 21.9198729811	 229.831668493	 0.1	 10.3	 5.791406870113644e-05	 0.0	 0	 0	 0	 0.0576	 178
179	 1	 65.5801270189	 224.831668493	 0.1	 10.3	 5.791406870113644e-05	 0.0	 0	 0	 0	 0.0576	 179
180	 1	 91.9198729811	 229.831668493	 0.1	 10.3	 5.791406870113644e-05	 0.0	 0	 0	 0	 0.0576	 180
181	 1	 153.080127019	 255.142557626	 0.1	 10.3	 5.791406870113644e-05	 0.0	 0	 0	 0	 0.0576	 181
182	 1	 188.080127019	 255.142557626	 0.1	 10.3	 5.791406870113644e-05	 0.0	 0	 0	 0	 0.0576	 182
183	 1	 223.080127019	 255.142557626	 0.1	 10.3	 5.791406870113644e-05	 0.0	 0	 0	 0	 0.0576	 183
184	 1	 249.419872981	 260.142557626	 0.1	 10.3	 5.791406870113644e-05	 0.0	 0	 0	 0	 0.0576	 184
185	 1	 284.419872981	 260.142557626	 0.1	 10.3	 5.791406870113644e-05	 0.0	 0	 0	 0	 0.0576	 185
186	 1	 328.080127019	 255.142557626	 0.1	 10.3	 5.791406870113644e-05	 0.0	 0	 0	 0	 0.0576	 186
187	 1	 13.0801270189	 255.142557626	 0.1	 10.3	 5.791406870113644e-05	 0.0	 0	 0	 0	 0.0576	 187
188	 1	 39.4198729811	 260.142557626	 0.1	 10.3	 5.791406870113644e-05	 0.0	 0	 0	 0	 0.0576	 188
189	 1	 74.4198729811	 260.142557626	 0.1	 10.3	 5.791406870113644e-05	 0.0	 0	 0	 0	 0.0576	 189
190	 1	 118.080127019	 255.142557626	 0.1	 10.3	 5.791406870113644e-05	 0.0	 0	 0	 0	 0.0576	 190
191	 1	 170.580127019	 285.453446758	 0.1	 10.3	 5.791406870113644e-05	 0.0	 0	 0	 0	 0.0576	 191
192	 1	 205.580127019	 285.453446758	 0.1	 10.3	 5.791406870113644e-05	 0.0	 0	 0	 0	 0.0576	 192
193	 1	 231.919872981	 290.453446758	 0.1	 10.3	 5.791406870113644e-05	 0.0	 0	 0	 0	 0.0576	 193
194	 1	 275.580127019	 285.453446758	 0.1	 10.3	 5.791406870113644e-05	 0.0	 0	 0	 0	 0.0576	 194
195	 1	 310.580127019	 285.453446758	 0.1	 10.3	 5.791406870113644e-05	 0.0	 0	 0	 0	 0.0576	 195
196	 1	 336.919872981	 290.453446758	 0.1	 10.3	 5.791406870113644e-05	 0.0	 0	 0	 0	 0.0576	 196
197	 1	 30.5801270189	 285.453446758	 0.1	 10.3	 5.791406870113644e-05	 0.0	 0	 0	 0	 0.0576	 197
198	 1	 65.5801270189	 285.453446758	 0.1	 10.3	 5.791406870113644e-05	 0.0	 0	 0	 0	 0.0576	 198
199	 1	 91.9198729811	 290.453446758	 0.1	 10.3	 5.791406870113644e-05	 0.0	 0	 0	 0	 0.0576	 199
200	 1	 126.919872981	 290.453446758	 0.1	 10.3	 5.791406870113644e-05	 0.0	 0	 0	 0	 0.0576	 200
201	 1	 -13.0801270189	 12.6554445662	 0.1	 10.3	 5.791406870113644e-05	 0.0	 0	 0	 0	 0.0576	 201
202	 1	 30.5801270189	 17.6554445662	 0.1	 10.3	 5.791406870113644e-05	 0.0	 0	 0	 0	 0.0576	 202
203	 1	 65.5801270189	 17.6554445662	 0.1	 10.3	 5.791406870113644e-05	 0.0	 0	 0	 0	 0.0576	 203
204	 1	 100.580127019	 17.6554445662	 0.1	 10.3	 5.791406870113644e-05	 0.0	 0	 0	 0	 0.0576	 204
205	 1	 135.580127019	 17.6554445662	 0.1	 10.3	 5.791406870113644e-05	 0.0	 0	 0	 0	 0.0576	 205
206	 1	 170.580127019	 17.6554445662	 0.1	 10.3	 5.791406870113644e-05	 0.0	 0	 0	 0	 0.0576	 206
207	 1	 196.919872981	 12.6554445662	 0.1	 10.3	 5.791406870113644e-05	 0.0	 0	 0	 0	 0.0576	 207
208	 1	 240.580127019	 17.6554445662	 0.1	 10.3	 5.791406870113644e-05	 0.0	 0	 0	 0	 0.0576	 208
209	 1	 266.919872981	 12.6554445662	 0.1	 10.3	 5.791406870113644e-05	 0.0	 0	 0	 0	 0.0576	 209
210	 1	 301.919872981	 12.6554445662	 0.1	 10.3	 5.791406870113644e-05	 0.0	 0	 0	 0	 0.0576	 210
211	 1	 4.41987298108	 42.9663336987	 0.1	 10.3	 5.791406870113644e-05	 0.0	 0	 0	 0	 0.0576	 211
212	 1	 48.0801270189	 47.9663336987	 0.1	 10.3	 5.791406870113644e-05	 0.0	 0	 0	 0	 0.0576	 212
213	 1	 74.4198729811	 42.9663336987	 0.1	 10.3	 5.791406870113644e-05	 0.0	 0	 0	 0	 0.0576	 213
214	 1	 109.419872981	 42.9663336987	 0.1	 10.3	 5.791406870113644e-05	 0.0	 0	 0	 0	 0.0576	 214
215	 1	 144.419872981	 42.9663336987	 0.1	 10.3	 5.791406870113644e-05	 0.0	 0	 0	 0	 0.0576	 215
216	 1	 179.419872981	 42.9663336987	 0.1	 10.3	 5.791406870113644e-05	 0.0	 0	 0	 0	 0.0576	 216
217	 1	 223.080127019	 47.9663336987	 0.1	 10.3	 5.791406870113644e-05	 0.0	 0	 0	 0	 0.0576	 217
218	 1	 258.080127019	 47.9663336987	 0.1	 10.3	 5.791406870113644e-05	 0.0	 0	 0	 0	 0.0576	 218
219	 1	 284.419872981	 42.9663336987	 0.1	 10.3	 5.791406870113644e-05	 0.0	 0	 0	 0	 0.0576	 219
220	 1	 328.080127019	 47.9663336987	 0.1	 10.3	 5.791406870113644e-05	 0.0	 0	 0	 0	 0.0576	 220
221	 1	 21.9198729811	 73.2772228311	 0.1	 10.3	 5.791406870113644e-05	 0.0	 0	 0	 0	 0.0576	 221
222	 1	 65.5801270189	 78.2772228311	 0.1	 10.3	 5.791406870113644e-05	 0.0	 0	 0	 0	 0.0576	 222
223	 1	 100.580127019	 78.2772228311	 0.1	 10.3	 5.791406870113644e-05	 0.0	 0	 0	 0	 0.0576	 223
224	 1	 135.580127019	 78.2772228311	 0.1	 10.3	 5.791406870113644e-05	 0.0	 0	 0	 0	 0.0576	 224
225	 1	 170.580127019	 78.2772228311	 0.1	 10.3	 5.791406870113644e-05	 0.0	 0	 0	 0	 0.0576	 225
226	 1	 205.580127019	 78.2772228311	 0.1	 10.3	 5.791406870113644e-05	 0.0	 0	 0	 0	 0.0576	 226
227	 1	 240.580127019	 78.2772228311	 0.1	 10.3	 5.791406870113644e-05	 0.0	 0	 0	 0	 0.0576	 227
228	 1	 275.580127019	 78.2772228311	 0.1	 10.3	 5.791406870113644e-05	 0.0	 0	 0	 0	 0.0576	 228
229	 1	 310.580127019	 78.2772228311	 0.1	 10.3	 5.791406870113644e-05	 0.0	 0	 0	 0	 0.0576	 229
230	 1	 -13.0801270189	 73.2772228311	 0.1	 10.3	 5.791406870113644e-05	 0.0	 0	 0	 0	 0.0576	 230
231	 1	 48.0801270189	 108.588111964	 0.1	 10.3	 5.791406870113644e-05	 0.0	 0	 0	 0	 0.0576	 231
232	 1	 83.0801270189	 108.588111964	 0.1	 10.3	 5.791406870113644e-05	 0.0	 0	 0	 0	 0.0576	 232
233	 1	 118.080127019	 108.588111964	 0.1	 10.3	 5.791406870113644e-05	 0.0	 0	 0	 0	 0.0576	 233
234	 1	 153.080127019	 108.588111964	 0.1	 10.3	 5.791406870113644e-05	 0.0	 0	 0	 0	 0.0576	 234
235	 1	 179.419872981	 103.588111964	 0.1	 10.3	 5.791406870113644e-05	 0.0	 0	 0	 0	 0.0576	 235
236	 1	 223.080127019	 108.588111964	 0.1	 10.3	 5.791406870113644e-05	 0.0	 0	 0	 0	 0.0576	 236
237	 1	 258.080127019	 108.588111964	 0.1	 10.3	 5.791406870113644e-05	 0.0	 0	 0	 0	 0.0576	 237
238	 1	 284.419872981	 103.588111964	 0.1	 10.3	 5.791406870113644e-05	 0.0	 0	 0	 0	 0.0576	 238
239	 1	 319.419872981	 103.588111964	 0.1	 10.3	 5.791406870113644e-05	 0.0	 0	 0	 0	 0.0576	 239
240	 1	 13.0801270189	 108.588111964	 0.1	 10.3	 5.791406870113644e-05	 0.0	 0	 0	 0	 0.0576	 240
241	 1	 65.5801270189	 138.899001096	 0.1	 10.3	 5.791406870113644e-05	 0.0	 0	 0	 0	 0.0576	 241
242	 1	 100.580127019	 138.899001096	 0.1	 10.3	 5.791406870113644e-05	 0.0	 0	 0	 0	 0.0576	 242
243	 1	 126.919872981	 133.899001096	 0.1	 10.3	 5.791406870113644e-05	 0.0	 0	 0	 0	 0.0576	 243
244	 1	 161.919872981	 133.899001096	 0.1	 10.3	 5.791406870113644e-05	 0.0	 0	 0	 0	 0.0576	 244
245	 1	 205.580127019	 138.899001096	 0.1	 10.3	 5.791406870113644e-05	 0.0	 0	 0	 0	 0.0576	 245
246	 1	 240.580127019	 138.899001096	 0.1	 10.3	 5.791406870113644e-05	 0.0	 0	 0	 0	 0.0576	 246
247	 1	 275.580127019	 138.899001096	 0.1	 10.3	 5.791406870113644e-05	 0.0	 0	 0	 0	 0.0576	 247
248	 1	 301.919872981	 133.899001096	 0.1	 10.3	 5.791406870113644e-05	 0.0	 0	 0	 0	 0.0576	 248
249	 1	 -13.0801270189	 133.899001096	 0.1	 10.3	 5.791406870113644e-05	 0.0	 0	 0	 0	 0.0576	 249
250	 1	 21.9198729811	 133.899001096	 0.1	 10.3	 5.791406870113644e-05	 0.0	 0	 0	 0	 0.0576	 250
251	 1	 83.0801270189	 169.209890229	 0.1	 10.3	 5.791406870113644e-05	 0.0	 0	 0	 0	 0.0576	 251
252	 1	 109.419872981	 164.209890229	 0.1	 10.3	 5.791406870113644e-05	 0.0	 0	 0	 0	 0.0576	 252
253	 1	 153.080127019	 169.209890229	 0.1	 10.3	 5.791406870113644e-05	 0.0	 0	 0	 0	 0.0576	 253
254	 1	 188.080127019	 169.209890229	 0.1	 10.3	 5.791406870113644e-05	 0.0	 0	 0	 0	 0.0576	 254
255	 1	 223.080127019	 169.209890229	 0.1	 10.3	 5.791406870113644e-05	 0.0	 0	 0	 0	 0.0576	 255
256	 1	 249.419872981	 164.209890229	 0.1	 10.3	 5.791406870113644e-05	 0.0	 0	 0	 0	 0.0576	 256
257	 1	 284.419872981	 164.209890229	 0.1	 10.3	 5.791406870113644e-05	 0.0	 0	 0	 0	 0.0576	 257
258	 1	 319.419872981	 164.209890229	 0.1	 10.3	 5.791406870113644e-05	 0.0	 0	 0	 0	 0.0576	 258
259	 1	 4.41987298108	 164.209890229	 0.1	 10.3	 5.791406870113644e-05	 0.0	 0	 0	 0	 0.0576	 259
260	 1	 39.4198729811	 164.209890229	 0.1	 10.3	 5.791406870113644e-05	 0.0	 0	 0	 0	 0.0576	 260
261	 1	 91.9198729811	 194.520779361	 0.1	 10.3	 5.791406870113644e-05	 0.0	 0	 0	 0	 0.0576	 261
262	 1	 126.919872981	 194.520779361	 0.1	 10.3	 5.791406870113644e-05	 0.0	 0	 0	 0	 0.0576	 262
263	 1	 170.580127019	 199.520779361	 0.1	 10.3	 5.791406870113644e-05	 0.0	 0	 0	 0	 0.0576	 263
264	 1	 196.919872981	 194.520779361	 0.1	 10.3	 5.791406870113644e-05	 0.0	 0	 0	 0	 0.0576	 264
265	 1	 231.919872981	 194.520779361	 0.1	 10.3	 5.791406870113644e-05	 0.0	 0	 0	 0	 0.0576	 265
266	 1	 266.919872981	 194.520779361	 0.1	 10.3	 5.791406870113644e-05	 0.0	 0	 0	 0	 0.0576	 266
267	 1	 310.580127019	 199.520779361	 0.1	 10.3	 5.791406870113644e-05	 0.0	 0	 0	 0	 0.0576	 267
268	 1	 -13.0801270189	 194.520779361	 0.1	 10.3	 5.791406870113644e-05	 0.0	 0	 0	 0	 0.0576	 268
269	 1	 21.9198729811	 194.520779361	 0.1	 10.3	 5.791406870113644e-05	 0.0	 0	 0	 0	 0.0576	 269
270	 1	 65.5801270189	 199.520779361	 0.1	 10.3	 5.791406870113644e-05	 0.0	 0	 0	 0	 0.0576	 270
271	 1	 109.419872981	 224.831668493	 0.1	 10.3	 5.791406870113644e-05	 0.0	 0	 0	 0	 0.0576	 271
272	 1	 153.080127019	 229.831668493	 0.1	 10.3	 5.791406870113644e-05	 0.0	 0	 0	 0	 0.0576	 272
273	 1	 188.080127019	 229.831668493	 0.1	 10.3	 5.791406870113644e-05	 0.0	 0	 0	 0	 0.0576	 273
274	 1	 223.080127019	 229.831668493	 0.1	 10.3	 5.791406870113644e-05	 0.0	 0	 0	 0	 0.0576	 274
275	 1	 258.080127019	 229.831668493	 0.1	 10.3	 5.791406870113644e-05	 0.0	 0	 0	 0	 0.0576	 275
276	 1	 284.419872981	 224.831668493	 0.1	 10.3	 5.791406870113644e-05	 0.0	 0	 0	 0	 0.0576	 276
277	 1	 319.419872981	 224.831668493	 0.1	 10.3	 5.791406870113644e-05	 0.0	 0	 0	 0	 0.0576	 277
278	 1	 4.41987298108	 224.831668493	 0.1	 10.3	 5.791406870113644e-05	 0.0	 0	 0	 0	 0.0576	 278
279	 1	 48.0801270189	 229.831668493	 0.1	 10.3	 5.791406870113644e-05	 0.0	 0	 0	 0	 0.0576	 279
280	 1	 74.4198729811	 224.831668493	 0.1	 10.3	 5.791406870113644e-05	 0.0	 0	 0	 0	 0.0576	 280
281	 1	 126.919872981	 255.142557626	 0.1	 10.3	 5.791406870113644e-05	 0.0	 0	 0	 0	 0.0576	 281
282	 1	 161.919872981	 255.142557626	 0.1	 10.3	 5.791406870113644e-05	 0.0	 0	 0	 0	 0.0576	 282
283	 1	 196.919872981	 255.142557626	 0.1	 10.3	 5.791406870113644e-05	 0.0	 0	 0	 0	 0.0576	 283
284	 1	 240.580127019	 260.142557626	 0.1	 10.3	 5.791406870113644e-05	 0.0	 0	 0	 0	 0.0576	 284
285	 1	 275.580127019	 260.142557626	 0.1	 10.3	 5.791406870113644e-05	 0.0	 0	 0	 0	 0.0576	 285
286	 1	 310.580127019	 260.142557626	 0.1	 10.3	 5.791406870113644e-05	 0.0	 0	 0	 0	 0.0576	 286
287	 1	 -13.0801270189	 255.142557626	 0.1	 10.3	 5.791406870113644e-05	 0.0	 0	 0	 0	 0.0576	 287
288	 1	 30.5801270189	 260.142557626	 0.1	 10.3	 5.791406870113644e-05	 0.0	 0	 0	 0	 0.0576	 288
289	 1	 56.9198729811	 255.142557626	 0.1	 10.3	 5.791406870113644e-05	 0.0	 0	 0	 0	 0.0576	 289
290	 1	 100.580127019	 260.142557626	 0.1	 10.3	 5.791406870113644e-05	 0.0	 0	 0	 0	 0.0576	 290
291	 1	 144.419872981	 285.453446758	 0.1	 10.3	 5.791406870113644e-05	 0.0	 0	 0	 0	 0.0576	 291
292	 1	 188.080127019	 290.453446758	 0.1	 10.3	 5.791406870113644e-05	 0.0	 0	 0	 0	 0.0576	 292
293	 1	 214.419872981	 285.453446758	 0.1	 10.3	 5.791406870113644e-05	 0.0	 0	 0	 0	 0.0576	 293
294	 1	 258.080127019	 290.453446758	 0.1	 10.3	 5.791406870113644e-05	 0.0	 0	 0	 0	 0.0576	 294
295	 1	 293.080127019	 290.453446758	 0.1	 10.3	 5.791406870113644e-05	 0.0	 0	 0	 0	 0.0576	 295
296	 1	 328.080127019	 290.453446758	 0.1	 10.3	 5.791406870113644e-05	 0.0	 0	 0	 0	 0.0576	 296
297	 1	 13.0801270189	 290.453446758	 0.1	 10.3	 5.791406870113644e-05	 0.0	 0	 0	 0	 0.0576	 297
298	 1	 39.4198729811	 285.453446758	 0.1	 10.3	 5.791406870113644e-05	 0.0	 0	 0	 0	 0.0576	 298
299	 1	 74.4198729811	 285.453446758	 0.1	 10.3	 5.791406870113644e-05	 0.0	 0	 0	 0	 0.0576	 299
300	 1	 118.080127019	 290.453446758	 0.1	 10.3	 5.791406870113644e-05	 0.0	 0	 0	 0	 0.0576	 300
301	 1	 -17.5	 -5.0	 0.1	 10.3	 5.791406870113644e-05	 0.0	 0	 0	 0	 0.0576	 301
302	 1	 4.16503707837e-15	 35.3108891325	 0.1	 10.3	 5.791406870113644e-05	 0.0	 0	 0	 0	 0.0576	 302
303	 1	 -17.5	 65.6217782649	 0.1	 10.3	 5.791406870113644e-05	 0.0	 0	 0	 0	 0.0576	 303
304	 1	 -6.12323399574e-16	 85.9326673974	 0.1	 10.3	 5.791406870113644e-05	 0.0	 0	 0	 0	 0.0576	 304
305	 1	 -17.5	 126.24355653	 0.1	 10.3	 5.791406870113644e-05	 0.0	 0	 0	 0	 0.0576	 305
306	 1	 6.12323399574e-16	 156.554445662	 0.1	 10.3	 5.791406870113644e-05	 0.0	 0	 0	 0	 0.0576	 306
307	 1	 -17.5	 186.865334795	 0.1	 10.3	 5.791406870113644e-05	 0.0	 0	 0	 0	 0.0576	 307
308	 1	 -6.12323399574e-16	 207.176223927	 0.1	 10.3	 5.791406870113644e-05	 0.0	 0	 0	 0	 0.0576	 308
309	 1	 -17.5	 237.48711306	 0.1	 10.3	 5.791406870113644e-05	 0.0	 0	 0	 0	 0.0576	 309
310	 1	 6.12323399574e-16	 277.798002192	 0.1	 10.3	 5.791406870113644e-05	 0.0	 0	 0	 0	 0.0576	 310
311	 1	 -13.0801270189	 -12.6554445662	 0.1	 10.3	 5.791406870113644e-05	 0.0	 0	 0	 0	 0.0576	 311
312	 1	 30.5801270189	 -17.6554445662	 0.1	 10.3	 5.791406870113644e-05	 0.0	 0	 0	 0	 0.0576	 312
313	 1	 56.9198729811	 -12.6554445662	 0.1	 10.3	 5.791406870113644e-05	 0.0	 0	 0	 0	 0.0576	 313
314	 1	 91.9198729811	 -12.6554445662	 0.1	 10.3	 5.791406870113644e-05	 0.0	 0	 0	 0	 0.0576	 314
315	 1	 126.919872981	 -12.6554445662	 0.1	 10.3	 5.791406870113644e-05	 0.0	 0	 0	 0	 0.0576	 315
316	 1	 170.580127019	 -17.6554445662	 0.1	 10.3	 5.791406870113644e-05	 0.0	 0	 0	 0	 0.0576	 316