ITEM: TIMESTEP
0
ITEM: NUMBER OF ATOMS
678
ITEM: BOX BOUNDS ss ss pp
-1.7538750000000000e+01 3.5003874999999999e+02
-1.7687755455360129e+01 2.9048575764745829e+02
-2.0000000000000000e-02 2.0000000000000000e-02
ITEM: ATOMS id type x y z 
650 2 -8.75 -15.1554 0 
311 1 -4.41987 -17.6554 0 
325 1 13.0801 -12.6554 0 
664 2 8.75 -15.1554 0 
312 1 30.5801 -17.6554 0 
651 2 26.25 -15.1554 0 
326 1 48.0801 -12.6554 0 
665 2 43.75 -15.1554 0 
313 1 65.5801 -17.6554 0 
652 2 61.25 -15.1554 0 
666 2 78.75 -15.1554 0 
327 1 83.0801 -12.6554 0 
314 1 100.58 -17.6554 0 
653 2 96.25 -15.1554 0 
667 2 113.75 -15.1554 0 
328 1 118.08 -12.6554 0 
315 1 135.58 -17.6554 0 
654 2 131.25 -15.1554 0 
329 1 153.08 -12.6554 0 
668 2 148.75 -15.1554 0 
655 2 166.25 -15.1554 0 
316 1 170.58 -17.6554 0 
330 1 188.08 -12.6554 0 
669 2 183.75 -15.1554 0 
656 2 201.25 -15.1554 0 
317 1 205.58 -17.6554 0 
331 1 223.08 -12.6554 0 
670 2 218.75 -15.1554 0 
657 2 236.25 -15.1554 0 
318 1 240.58 -17.6554 0 
332 1 258.08 -12.6554 0 
671 2 253.75 -15.1554 0 
319 1 275.58 -17.6554 0 
658 2 271.25 -15.1554 0 
672 2 288.75 -15.1554 0 
333 1 293.08 -12.6554 0 
320 1 310.58 -17.6554 0 
659 2 306.25 -15.1554 0 
673 2 323.75 -15.1554 0 
334 1 328.08 -12.6554 0 
301 1 -17.5 -5 0 
640 2 -17.5 2.14313e-15 0 
1 1 17.5 5 0 
340 2 17.5 0 0 
2 1 52.5 5 0 
341 2 52.5 0 0 
3 1 87.5 5 0 
342 2 87.5 0 0 
4 1 122.5 5 0 
343 2 122.5 0 0 
5 1 157.5 5 0 
344 2 157.5 0 0 
6 1 192.5 5 0 
345 2 192.5 0 0 
7 1 227.5 5 0 
346 2 227.5 0 0 
8 1 262.5 5 0 
347 2 262.5 0 0 
9 1 297.5 5 0 
348 2 297.5 0 0 
10 1 332.5 5 0 
349 2 332.5 0 0 
201 1 -13.0801 12.6554 0 
540 2 -8.75 15.1554 0 
101 1 4.41987 17.6554 0 
440 2 8.75 15.1554 0 
202 1 21.9199 12.6554 0 
541 2 26.25 15.1554 0 
102 1 39.4199 17.6554 0 
441 2 43.75 15.1554 0 
203 1 56.9199 12.6554 0 
542 2 61.25 15.1554 0 
103 1 74.4199 17.6554 0 
442 2 78.75 15.1554 0 
204 1 91.9199 12.6554 0 
543 2 96.25 15.1554 0 
104 1 109.42 17.6554 0 
443 2 113.75 15.1554 0 
205 1 126.92 12.6554 0 
544 2 131.25 15.1554 0 
105 1 144.42 17.6554 0 
444 2 148.75 15.1554 0 
206 1 161.92 12.6554 0 
545 2 166.25 15.1554 0 
106 1 179.42 17.6554 0 
445 2 183.75 15.1554 0 
207 1 196.92 12.6554 0 
546 2 201.25 15.1554 0 
107 1 214.42 17.6554 0 
446 2 218.75 15.1554 0 
208 1 231.92 12.6554 0 
547 2 236.25 15.1554 0 
108 1 249.42 17.6554 0 
447 2 253.75 15.1554 0 
209 1 266.92 12.6554 0 
548 2 271.25 15.1554 0 
109 1 284.42 17.6554 0 
448 2 288.75 15.1554 0 
210 1 301.92 12.6554 0 
549 2 306.25 15.1554 0 
110 1 319.42 17.6554 0 
449 2 323.75 15.1554 0 
335 1 345.58 17.6554 0 
674 2 341.25 15.1554 0 
302 1 3.27346e-15 25.3109 0 
641 2 3.88578e-15 30.3109 0 
350 2 35 30.3109 0 
351 2 70 30.3109 0 
352 2 105 30.3109 0 
353 2 140 30.3109 0 
354 2 175 30.3109 0 
355 2 210 30.3109 0 
356 2 245 30.3109 0 
357 2 280 30.3109 0 
358 2 315 30.3109 0 
359 2 350 30.3109 0 
211 1 4.41987 42.9663 0 
321 1 -4.41987 42.9663 0 
11 1 35 35.3109 0 
212 1 39.4199 42.9663 0 
12 1 70 35.3109 0 
213 1 74.4199 42.9663 0 
13 1 105 35.3109 0 
214 1 109.42 42.9663 0 
14 1 140 35.3109 0 
215 1 144.42 42.9663 0 
15 1 175 35.3109 0 
216 1 179.42 42.9663 0 
16 1 210 35.3109 0 
217 1 214.42 42.9663 0 
17 1 245 35.3109 0 
218 1 249.42 42.9663 0 
18 1 280 35.3109 0 
219 1 284.42 42.9663 0 
19 1 315 35.3109 0 
220 1 319.42 42.9663 0 
20 1 350 35.3109 0 
303 1 -17.5 55.6218 0 
660 2 -8.75 45.4663 0 
550 2 8.75 45.4663 0 
111 1 21.9199 47.9663 0 
450 2 26.25 45.4663 0 
551 2 43.75 45.4663 0 
112 1 56.9199 47.9663 0 
451 2 61.25 45.4663 0 
552 2 78.75 45.4663 0 
113 1 91.9199 47.9663 0 
452 2 96.25 45.4663 0 
553 2 113.75 45.4663 0 
114 1 126.92 47.9663 0 
453 2 131.25 45.4663 0 
554 2 148.75 45.4663 0 
115 1 161.92 47.9663 0 
454 2 166.25 45.4663 0 
555 2 183.75 45.4663 0 
116 1 196.92 47.9663 0 
455 2 201.25 45.4663 0 
556 2 218.75 45.4663 0 
117 1 231.92 47.9663 0 
456 2 236.25 45.4663 0 
557 2 253.75 45.4663 0 
118 1 266.92 47.9663 0 
457 2 271.25 45.4663 0 
558 2 288.75 45.4663 0 
119 1 301.92 47.9663 0 
458 2 306.25 45.4663 0 
559 2 323.75 45.4663 0 
120 1 336.92 47.9663 0 
459 2 341.25 45.4663 0 
642 2 -17.5 60.6218 0 
30 1 17.5 65.6218 0 
369 2 17.5 60.6218 0 
21 1 52.5 65.6218 0 
360 2 52.5 60.6218 0 
22 1 87.5 65.6218 0 
361 2 87.5 60.6218 0 
23 1 122.5 65.6218 0 
362 2 122.5 60.6218 0 
24 1 157.5 65.6218 0 
363 2 157.5 60.6218 0 
25 1 192.5 65.6218 0 
364 2 192.5 60.6218 0 
26 1 227.5 65.6218 0 
365 2 227.5 60.6218 0 
27 1 262.5 65.6218 0 
366 2 262.5 60.6218 0 
28 1 297.5 65.6218 0 
367 2 297.5 60.6218 0 
29 1 332.5 65.6218 0 
368 2 332.5 60.6218 0 
230 1 -13.0801 73.2772 0 
569 2 -8.75 75.7772 0 
130 1 4.41987 78.2772 0 
469 2 8.75 75.7772 0 
221 1 21.9199 73.2772 0 
560 2 26.25 75.7772 0 
121 1 39.4199 78.2772 0 
460 2 43.75 75.7772 0 
222 1 56.9199 73.2772 0 
561 2 61.25 75.7772 0 
122 1 74.4199 78.2772 0 
461 2 78.75 75.7772 0 
223 1 91.9199 73.2772 0 
562 2 96.25 75.7772 0 
123 1 109.42 78.2772 0 
462 2 113.75 75.7772 0 
224 1 126.92 73.2772 0 
563 2 131.25 75.7772 0 
124 1 144.42 78.2772 0 
463 2 148.75 75.7772 0 
225 1 161.92 73.2772 0 
564 2 166.25 75.7772 0 
125 1 179.42 78.2772 0 
464 2 183.75 75.7772 0 
226 1 196.92 73.2772 0 
565 2 201.25 75.7772 0 
126 1 214.42 78.2772 0 
465 2 218.75 75.7772 0 
227 1 231.92 73.2772 0 
566 2 236.25 75.7772 0 
127 1 249.42 78.2772 0 
466 2 253.75 75.7772 0 
228 1 266.92 73.2772 0 
567 2 271.25 75.7772 0 
128 1 284.42 78.2772 0 
467 2 288.75 75.7772 0 
229 1 301.92 73.2772 0 
568 2 306.25 75.7772 0 
129 1 319.42 78.2772 0 
468 2 323.75 75.7772 0 
336 1 345.58 78.2772 0 
675 2 341.25 75.7772 0 
304 1 -6.12323e-16 85.9327 0 
643 2 0 90.9327 0 
379 2 35 90.9327 0 
370 2 70 90.9327 0 
371 2 105 90.9327 0 
372 2 140 90.9327 0 
373 2 175 90.9327 0 
374 2 210 90.9327 0 
375 2 245 90.9327 0 
376 2 280 90.9327 0 
377 2 315 90.9327 0 
378 2 350 90.9327 0 
240 1 4.41987 103.588 0 
322 1 -4.41987 103.588 0 
40 1 35 95.9327 0 
231 1 39.4199 103.588 0 
31 1 70 95.9327 0 
232 1 74.4199 103.588 0 
32 1 105 95.9327 0 
233 1 109.42 103.588 0 
33 1 140 95.9327 0 
234 1 144.42 103.588 0 
34 1 175 95.9327 0 
235 1 179.42 103.588 0 
35 1 210 95.9327 0 
236 1 214.42 103.588 0 
36 1 245 95.9327 0 
237 1 249.42 103.588 0 
37 1 280 95.9327 0 
238 1 284.42 103.588 0 
38 1 315 95.9327 0 
239 1 319.42 103.588 0 
39 1 350 95.9327 0 
305 1 -17.5 116.244 0 
661 2 -8.75 106.088 0 
579 2 8.75 106.088 0 
140 1 21.9199 108.588 0 
479 2 26.25 106.088 0 
570 2 43.75 106.088 0 
131 1 56.9199 108.588 0 
470 2 61.25 106.088 0 
571 2 78.75 106.088 0 
132 1 91.9199 108.588 0 
471 2 96.25 106.088 0 
572 2 113.75 106.088 0 
133 1 126.92 108.588 0 
472 2 131.25 106.088 0 
573 2 148.75 106.088 0 
134 1 161.92 108.588 0 
473 2 166.25 106.088 0 
574 2 183.75 106.088 0 
135 1 196.92 108.588 0 
474 2 201.25 106.088 0 
575 2 218.75 106.088 0 
136 1 231.92 108.588 0 
475 2 236.25 106.088 0 
576 2 253.75 106.088 0 
137 1 266.92 108.588 0 
476 2 271.25 106.088 0 
577 2 288.75 106.088 0 
138 1 301.92 108.588 0 
477 2 306.25 106.088 0 
578 2 323.75 106.088 0 
139 1 336.92 108.588 0 
478 2 341.25 106.088 0 
644 2 -17.5 121.244 0 
49 1 17.5 126.244 0 
388 2 17.5 121.244 0 
50 1 52.5 126.244 0 
389 2 52.5 121.244 0 
41 1 87.5 126.244 0 
380 2 87.5 121.244 0 
42 1 122.5 126.244 0 
381 2 122.5 121.244 0 
43 1 157.5 126.244 0 
382 2 157.5 121.244 0 
44 1 192.5 126.244 0 
383 2 192.5 121.244 0 
45 1 227.5 126.244 0 
384 2 227.5 121.244 0 
46 1 262.5 126.244 0 
385 2 262.5 121.244 0 
47 1 297.5 126.244 0 
386 2 297.5 121.244 0 
48 1 332.5 126.244 0 
387 2 332.5 121.244 0 
249 1 -13.0801 133.899 0 
588 2 -8.75 136.399 0 
149 1 4.41987 138.899 0 
488 2 8.75 136.399 0 
250 1 21.9199 133.899 0 
589 2 26.25 136.399 0 
150 1 39.4199 138.899 0 
489 2 43.75 136.399 0 
241 1 56.9199 133.899 0 
580 2 61.25 136.399 0 
141 1 74.4199 138.899 0 
480 2 78.75 136.399 0 
242 1 91.9199 133.899 0 
581 2 96.25 136.399 0 
142 1 109.42 138.899 0 
481 2 113.75 136.399 0 
243 1 126.92 133.899 0 
582 2 131.25 136.399 0 
143 1 144.42 138.899 0 
482 2 148.75 136.399 0 
244 1 161.92 133.899 0 
583 2 166.25 136.399 0 
144 1 179.42 138.899 0 
483 2 183.75 136.399 0 
245 1 196.92 133.899 0 
584 2 201.25 136.399 0 
145 1 214.42 138.899 0 
484 2 218.75 136.399 0 
246 1 231.92 133.899 0 
585 2 236.25 136.399 0 
146 1 249.42 138.899 0 
485 2 253.75 136.399 0 
247 1 266.92 133.899 0 
586 2 271.25 136.399 0 
147 1 284.42 138.899 0 
486 2 288.75 136.399 0 
248 1 301.92 133.899 0 
587 2 306.25 136.399 0 
148 1 319.42 138.899 0 
487 2 323.75 136.399 0 
337 1 345.58 138.899 0 
676 2 341.25 136.399 0 
306 1 -6.12323e-16 146.554 0 
645 2 0 151.554 0 
398 2 35 151.554 0 
399 2 70 151.554 0 
390 2 105 151.554 0 
391 2 140 151.554 0 
392 2 175 151.554 0 
393 2 210 151.554 0 
394 2 245 151.554 0 
395 2 280 151.554 0 
396 2 315 151.554 0 
397 2 350 151.554 0 
662 2 -8.75 166.71 0 
259 1 4.41987 164.21 0 
323 1 -4.41987 164.21 0 
598 2 8.75 166.71 0 
498 2 26.25 166.71 0 
59 1 35 156.554 0 
260 1 39.4199 164.21 0 
599 2 43.75 166.71 0 
499 2 61.25 166.71 0 
60 1 70 156.554 0 
251 1 74.4199 164.21 0 
590 2 78.75 166.71 0 
490 2 96.25 166.71 0 
51 1 105 156.554 0 
252 1 109.42 164.21 0 
591 2 113.75 166.71 0 
52 1 140 156.554 0 
491 2 131.25 166.71 0 
253 1 144.42 164.21 0 
592 2 148.75 166.71 0 
492 2 166.25 166.71 0 
53 1 175 156.554 0 
254 1 179.42 164.21 0 
593 2 183.75 166.71 0 
493 2 201.25 166.71 0 
54 1 210 156.554 0 
255 1 214.42 164.21 0 
594 2 218.75 166.71 0 
494 2 236.25 166.71 0 
55 1 245 156.554 0 
256 1 249.42 164.21 0 
595 2 253.75 166.71 0 
495 2 271.25 166.71 0 
56 1 280 156.554 0 
257 1 284.42 164.21 0 
596 2 288.75 166.71 0 
496 2 306.25 166.71 0 
57 1 315 156.554 0 
258 1 319.42 164.21 0 
597 2 323.75 166.71 0 
58 1 350 156.554 0 
497 2 341.25 166.71 0 
307 1 -17.5 176.865 0 
159 1 21.9199 169.21 0 
160 1 56.9199 169.21 0 
151 1 91.9199 169.21 0 
152 1 126.92 169.21 0 
153 1 161.92 169.21 0 
154 1 196.92 169.21 0 
155 1 231.92 169.21 0 
156 1 266.92 169.21 0 
157 1 301.92 169.21 0 
158 1 336.92 169.21 0 
646 2 -17.5 181.865 0 
68 1 17.5 186.865 0 
407 2 17.5 181.865 0 
69 1 52.5 186.865 0 
408 2 52.5 181.865 0 
70 1 87.5 186.865 0 
409 2 87.5 181.865 0 
61 1 122.5 186.865 0 
400 2 122.5 181.865 0 
62 1 157.5 186.865 0 
401 2 157.5 181.865 0 
63 1 192.5 186.865 0 
402 2 192.5 181.865 0 
64 1 227.5 186.865 0 
403 2 227.5 181.865 0 
65 1 262.5 186.865 0 
404 2 262.5 181.865 0 
66 1 297.5 186.865 0 
405 2 297.5 181.865 0 
67 1 332.5 186.865 0 
406 2 332.5 181.865 0 
268 1 -13.0801 194.521 0 
607 2 -8.75 197.021 0 
168 1 4.41987 199.521 0 
507 2 8.75 197.021 0 
269 1 21.9199 194.521 0 
608 2 26.25 197.021 0 
169 1 39.4199 199.521 0 
508 2 43.75 197.021 0 
270 1 56.9199 194.521 0 
609 2 61.25 197.021 0 
170 1 74.4199 199.521 0 
509 2 78.75 197.021 0 
261 1 91.9199 194.521 0 
600 2 96.25 197.021 0 
161 1 109.42 199.521 0 
500 2 113.75 197.021 0 
262 1 126.92 194.521 0 
601 2 131.25 197.021 0 
162 1 144.42 199.521 0 
501 2 148.75 197.021 0 
263 1 161.92 194.521 0 
602 2 166.25 197.021 0 
163 1 179.42 199.521 0 
502 2 183.75 197.021 0 
264 1 196.92 194.521 0 
603 2 201.25 197.021 0 
164 1 214.42 199.521 0 
503 2 218.75 197.021 0 
265 1 231.92 194.521 0 
604 2 236.25 197.021 0 
165 1 249.42 199.521 0 
504 2 253.75 197.021 0 
266 1 266.92 194.521 0 
605 2 271.25 197.021 0 
166 1 284.42 199.521 0 
505 2 288.75 197.021 0 
267 1 301.92 194.521 0 
606 2 306.25 197.021 0 
167 1 319.42 199.521 0 
506 2 323.75 197.021 0 
338 1 345.58 199.521 0 
677 2 341.25 197.021 0 
308 1 -6.12323e-16 207.176 0 
647 2 0 212.176 0 
417 2 35 212.176 0 
418 2 70 212.176 0 
419 2 105 212.176 0 
410 2 140 212.176 0 
411 2 175 212.176 0 
412 2 210 212.176 0 
413 2 245 212.176 0 
414 2 280 212.176 0 
415 2 315 212.176 0 
416 2 350 212.176 0 
663 2 -8.75 227.332 0 
278 1 4.41987 224.832 0 
324 1 -4.41987 224.832 0 
617 2 8.75 227.332 0 
517 2 26.25 227.332 0 
78 1 35 217.176 0 
279 1 39.4199 224.832 0 
618 2 43.75 227.332 0 
518 2 61.25 227.332 0 
79 1 70 217.176 0 
280 1 74.4199 224.832 0 
619 2 78.75 227.332 0 
519 2 96.25 227.332 0 
80 1 105 217.176 0 
271 1 109.42 224.832 0 
610 2 113.75 227.332 0 
71 1 140 217.176 0 
510 2 131.25 227.332 0 
272 1 144.42 224.832 0 
611 2 148.75 227.332 0 
72 1 175 217.176 0 
511 2 166.25 227.332 0 
273 1 179.42 224.832 0 
612 2 183.75 227.332 0 
512 2 201.25 227.332 0 
73 1 210 217.176 0 
274 1 214.42 224.832 0 
613 2 218.75 227.332 0 
513 2 236.25 227.332 0 
74 1 245 217.176 0 
275 1 249.42 224.832 0 
614 2 253.75 227.332 0 
514 2 271.25 227.332 0 
75 1 280 217.176 0 
276 1 284.42 224.832 0 
615 2 288.75 227.332 0 
515 2 306.25 227.332 0 
76 1 315 217.176 0 
277 1 319.42 224.832 0 
616 2 323.75 227.332 0 
77 1 350 217.176 0 
516 2 341.25 227.332 0 
309 1 -17.5 237.487 0 
178 1 21.9199 229.832 0 
179 1 56.9199 229.832 0 
180 1 91.9199 229.832 0 
171 1 126.92 229.832 0 
172 1 161.92 229.832 0 
173 1 196.92 229.832 0 
174 1 231.92 229.832 0 
175 1 266.92 229.832 0 
176 1 301.92 229.832 0 
177 1 336.92 229.832 0 
648 2 -17.5 242.487 0 
87 1 17.5 247.487 0 
426 2 17.5 242.487 0 
88 1 52.5 247.487 0 
427 2 52.5 242.487 0 
89 1 87.5 247.487 0 
428 2 87.5 242.487 0 
90 1 122.5 247.487 0 
429 2 122.5 242.487 0 
81 1 157.5 247.487 0 
420 2 157.5 242.487 0 
82 1 192.5 247.487 0 
421 2 192.5 242.487 0 
83 1 227.5 247.487 0 
422 2 227.5 242.487 0 
84 1 262.5 247.487 0 
423 2 262.5 242.487 0 
85 1 297.5 247.487 0 
424 2 297.5 242.487 0 
86 1 332.5 247.487 0 
425 2 332.5 242.487 0 
287 1 -13.0801 255.143 0 
626 2 -8.75 257.643 0 
187 1 4.41987 260.143 0 
526 2 8.75 257.643 0 
288 1 21.9199 255.143 0 
627 2 26.25 257.643 0 
188 1 39.4199 260.143 0 
527 2 43.75 257.643 0 
289 1 56.9199 255.143 0 
628 2 61.25 257.643 0 
189 1 74.4199 260.143 0 
528 2 78.75 257.643 0 
290 1 91.9199 255.143 0 
629 2 96.25 257.643 0 
190 1 109.42 260.143 0 
529 2 113.75 257.643 0 
281 1 126.92 255.143 0 
620 2 131.25 257.643 0 
181 1 144.42 260.143 0 
520 2 148.75 257.643 0 
282 1 161.92 255.143 0 
621 2 166.25 257.643 0 
182 1 179.42 260.143 0 
521 2 183.75 257.643 0 
283 1 196.92 255.143 0 
622 2 201.25 257.643 0 
183 1 214.42 260.143 0 
522 2 218.75 257.643 0 
284 1 231.92 255.143 0 
623 2 236.25 257.643 0 
184 1 249.42 260.143 0 
523 2 253.75 257.643 0 
285 1 266.92 255.143 0 
624 2 271.25 257.643 0 
185 1 284.42 260.143 0 
524 2 288.75 257.643 0 
286 1 301.92 255.143 0 
625 2 306.25 257.643 0 
186 1 319.42 260.143 0 
525 2 323.75 257.643 0 
339 1 345.58 260.143 0 
678 2 341.25 257.643 0 
310 1 -6.12323e-16 267.798 0 
649 2 0 272.798 0 
97 1 35 277.798 0 
436 2 35 272.798 0 
98 1 70 277.798 0 
437 2 70 272.798 0 
99 1 105 277.798 0 
438 2 105 272.798 0 
100 1 140 277.798 0 
439 2 140 272.798 0 
91 1 175 277.798 0 
430 2 175 272.798 0 
92 1 210 277.798 0 
431 2 210 272.798 0 
93 1 245 277.798 0 
432 2 245 272.798 0 
94 1 280 277.798 0 
433 2 280 272.798 0 
95 1 315 277.798 0 
434 2 315 272.798 0 
96 1 350 277.798 0 
435 2 350 272.798 0 
297 1 4.41987 285.453 0 
636 2 8.75 287.953 0 
197 1 21.9199 290.453 0 
536 2 26.25 287.953 0 
298 1 39.4199 285.453 0 
637 2 43.75 287.953 0 
198 1 56.9199 290.453 0 
537 2 61.25 287.953 0 
299 1 74.4199 285.453 0 
638 2 78.75 287.953 0 
199 1 91.9199 290.453 0 
538 2 96.25 287.953 0 
300 1 109.42 285.453 0 
639 2 113.75 287.953 0 
200 1 126.92 290.453 0 
539 2 131.25 287.953 0 
291 1 144.42 285.453 0 
630 2 148.75 287.953 0 
191 1 161.92 290.453 0 
530 2 166.25 287.953 0 
292 1 179.42 285.453 0 
631 2 183.75 287.953 0 
192 1 196.92 290.453 0 
531 2 201.25 287.953 0 
293 1 214.42 285.453 0 
632 2 218.75 287.953 0 
193 1 231.92 290.453 0 
532 2 236.25 287.953 0 
294 1 249.42 285.453 0 
633 2 253.75 287.953 0 
194 1 266.92 290.453 0 
533 2 271.25 287.953 0 
295 1 284.42 285.453 0 
634 2 288.75 287.953 0 
195 1 301.92 290.453 0 
534 2 306.25 287.953 0 
296 1 319.42 285.453 0 
635 2 323.75 287.953 0 
196 1 336.92 290.453 0 
535 2 341.25 287.953 0 
ITEM: TIMESTEP
100
ITEM: NUMBER OF ATOMS
678
ITEM: BOX BOUNDS ss ss pp
-1.8187917089818264e+01 3.5044367016425656e+02
-1.7968619165319875e+01 2.9096810864950083e+02
-2.0000000000000000e-02 2.0000000000000000e-02
ITEM: ATOMS id type x y z 
650 2 -8.75 -15.1554 0 
311 1 -4.51732 -17.8995 0 
325 1 13.1145 -12.8996 0 
664 2 8.75 -15.1554 0 
312 1 30.6003 -17.9479 0 
651 2 26.25 -15.1554 0 
326 1 48.2775 -12.8782 0 
665 2 43.75 -15.1554 0 
313 1 65.5417 -17.9384 0 
652 2 61.25 -15.1554 0 
666 2 78.75 -15.1554 0 
327 1 83.1013 -12.6667 0 
314 1 100.615 -17.807 0 
653 2 96.25 -15.1554 0 
667 2 113.75 -15.1554 0 
328 1 118.17 -12.8025 0 
315 1 135.568 -17.8031 0 
654 2 131.25 -15.1554 0 
329 1 153.339 -12.9604 0 
668 2 148.75 -15.1554 0 
655 2 166.25 -15.1554 0 
316 1 170.636 -17.7523 0 
330 1 188.241 -12.892 0 
669 2 183.75 -15.1554 0 
656 2 201.25 -15.1554 0 
317 1 205.723 -17.9089 0 
331 1 223.276 -12.9819 0 
670 2 218.75 -15.1554 0 
657 2 236.25 -15.1554 0 
318 1 240.668 -17.9528 0 
332 1 258.287 -12.9141 0 
671 2 253.75 -15.1554 0 
319 1 275.461 -17.8154 0 
658 2 271.25 -15.1554 0 
672 2 288.75 -15.1554 0 
333 1 293.305 -12.9355 0 
320 1 310.653 -17.7817 0 
659 2 306.25 -15.1554 0 
673 2 323.75 -15.1554 0 
334 1 328.271 -12.9099 0 
301 1 -17.796 -5.09186 0 
640 2 -17.5 2.14313e-15 0 
1 1 17.5323 1.53135 0 
340 2 17.5 0 0 
2 1 52.3591 1.99158 0 
341 2 52.5 0 0 
3 1 87.3614 2.58305 0 
342 2 87.5 0 0 
4 1 122.234 2.40156 0 
343 2 122.5 0 0 
5 1 157.308 2.18769 0 
344 2 157.5 0 0 
6 1 192.253 2.29048 0 
345 2 192.5 0 0 
7 1 227.468 2.24771 0 
346 2 227.5 0 0 
8 1 262.317 2.19381 0 
347 2 262.5 0 0 
9 1 297.348 2.69945 0 
348 2 297.5 0 0 
10 1 332.621 5.07482 0 
349 2 332.5 0 0 
201 1 -13.3671 12.8704 0 
540 2 -8.75 15.1554 0 
101 1 6.58171 16.0228 0 
440 2 8.75 15.1554 0 
202 1 24.7892 14.7159 0 
541 2 26.25 15.1554 0 
102 1 39.8812 17.4724 0 
441 2 43.75 15.1554 0 
203 1 59.0892 14.4461 0 
542 2 61.25 15.1554 0 
103 1 74.5935 17.4067 0 
442 2 78.75 15.1554 0 
204 1 94.3689 14.8131 0 
543 2 96.25 15.1554 0 
104 1 109.562 17.6251 0 
443 2 113.75 15.1554 0 
205 1 129.445 14.7421 0 
544 2 131.25 15.1554 0 
105 1 144.428 17.634 0 
444 2 148.75 15.1554 0 
206 1 164.114 14.5579 0 
545 2 166.25 15.1554 0 
106 1 179.508 17.5239 0 
445 2 183.75 15.1554 0 
207 1 199.355 14.6942 0 
546 2 201.25 15.1554 0 
107 1 214.646 17.6565 0 
446 2 218.75 15.1554 0 
208 1 234.184 14.557 0 
547 2 236.25 15.1554 0 
108 1 249.497 17.7289 0 
447 2 253.75 15.1554 0 
209 1 269.223 14.4726 0 
548 2 271.25 15.1554 0 
109 1 284.47 17.8185 0 
448 2 288.75 15.1554 0 
210 1 304.274 14.746 0 
549 2 306.25 15.1554 0 
110 1 319.528 17.7286 0 
449 2 323.75 15.1554 0 
335 1 345.767 17.4638 0 
674 2 341.25 15.1554 0 
302 1 -0.318897 27.9948 0 
641 2 3.88578e-15 30.3109 0 
350 2 35 30.3109 0 
351 2 70 30.3109 0 
352 2 105 30.3109 0 
353 2 140 30.3109 0 
354 2 175 30.3109 0 
355 2 210 30.3109 0 
356 2 245 30.3109 0 
357 2 280 30.3109 0 
358 2 315 30.3109 0 
359 2 350 30.3109 0 
211 1 6.82119 44.5199 0 
321 1 -8.25003 44.7331 0 
11 1 34.4975 32.2538 0 
212 1 41.3992 44.5914 0 
12 1 69.577 32.4694 0 
213 1 76.7229 44.9186 0 
13 1 104.54 32.2146 0 
214 1 111.557 44.628 0 
14 1 139.454 32.2909 0 
215 1 146.698 45.0615 0 
15 1 174.474 32.4356 0 
216 1 181.452 44.8566 0 
16 1 209.421 32.547 0 
217 1 216.851 44.8901 0 
17 1 244.39 32.445 0 
218 1 251.662 45.0052 0 
18 1 279.507 32.2474 0 
219 1 286.589 44.7108 0 
19 1 314.558 32.3151 0 
220 1 321.678 44.731 0 
20 1 350.444 35.4518 0 
303 1 -18.1373 55.5596 0 
660 2 -8.75 45.4663 0 
550 2 8.75 45.4663 0 
111 1 21.9817 47.7756 0 
450 2 26.25 45.4663 0 
551 2 43.75 45.4663 0 
112 1 57.0125 47.8406 0 
451 2 61.25 45.4663 0 
552 2 78.75 45.4663 0 
113 1 91.7812 47.8281 0 
452 2 96.25 45.4663 0 
553 2 113.75 45.4663 0 
114 1 126.942 47.9479 0 
453 2 131.25 45.4663 0 
554 2 148.75 45.4663 0 
115 1 162.043 47.9626 0 
454 2 166.25 45.4663 0 
555 2 183.75 45.4663 0 
116 1 196.996 48.1041 0 
455 2 201.25 45.4663 0 
556 2 218.75 45.4663 0 
117 1 232.004 47.9046 0 
456 2 236.25 45.4663 0 
557 2 253.75 45.4663 0 
118 1 266.884 47.8634 0 
457 2 271.25 45.4663 0 
558 2 288.75 45.4663 0 
119 1 301.905 47.7242 0 
458 2 306.25 45.4663 0 
559 2 323.75 45.4663 0 
120 1 336.914 48.1523 0 
459 2 341.25 45.4663 0 
642 2 -17.5 60.6218 0 
30 1 17.0219 62.0079 0 
369 2 17.5 60.6218 0 
21 1 51.8972 62.7203 0 
360 2 52.5 60.6218 0 
22 1 87.0266 63.0397 0 
361 2 87.5 60.6218 0 
23 1 121.769 62.307 0 
362 2 122.5 60.6218 0 
24 1 156.921 62.7568 0 
363 2 157.5 60.6218 0 
25 1 191.906 62.6491 0 
364 2 192.5 60.6218 0 
26 1 226.881 62.9346 0 
365 2 227.5 60.6218 0 
27 1 262.037 62.7211 0 
366 2 262.5 60.6218 0 
28 1 297.073 62.4342 0 
367 2 297.5 60.6218 0 
29 1 332.516 65.6571 0 
368 2 332.5 60.6218 0 
230 1 -13.3755 73.4816 0 
569 2 -8.75 75.7772 0 
130 1 6.43432 76.5298 0 
469 2 8.75 75.7772 0 
221 1 24.6756 75.308 0 
560 2 26.25 75.7772 0 
121 1 39.4793 78.2228 0 
460 2 43.75 75.7772 0 
222 1 58.9759 75.0292 0 
561 2 61.25 75.7772 0 
122 1 74.423 78.3178 0 
461 2 78.75 75.7772 0 
223 1 94.2706 75.1284 0 
562 2 96.25 75.7772 0 
123 1 109.574 78.2009 0 
462 2 113.75 75.7772 0 
224 1 128.832 75.0124 0 
563 2 131.25 75.7772 0 
124 1 144.572 78.3289 0 
463 2 148.75 75.7772 0 
225 1 164.283 75.3002 0 
564 2 166.25 75.7772 0 
125 1 179.63 78.2072 0 
464 2 183.75 75.7772 0 
226 1 199.319 75.3157 0 
565 2 201.25 75.7772 0 
126 1 214.552 78.3009 0 
465 2 218.75 75.7772 0 
227 1 234.361 75.2252 0 
566 2 236.25 75.7772 0 
127 1 249.461 78.3102 0 
466 2 253.75 75.7772 0 
228 1 269.205 75.1405 0 
567 2 271.25 75.7772 0 
128 1 284.551 78.081 0 
467 2 288.75 75.7772 0 
229 1 304.309 75.0452 0 
568 2 306.25 75.7772 0 
129 1 319.544 78.2697 0 
468 2 323.75 75.7772 0 
336 1 345.825 78.2504 0 
675 2 341.25 75.7772 0 
304 1 -0.263334 88.8091 0 
643 2 0 90.9327 0 
379 2 35 90.9327 0 
370 2 70 90.9327 0 
371 2 105 90.9327 0 
372 2 140 90.9327 0 
373 2 175 90.9327 0 
374 2 210 90.9327 0 
375 2 245 90.9327 0 
376 2 280 90.9327 0 
377 2 315 90.9327 0 
378 2 350 90.9327 0 
240 1 6.9528 105.044 0 
322 1 -7.93027 105.407 0 
40 1 34.5716 93.1115 0 
231 1 41.5909 105.505 0 
31 1 69.3799 93.1314 0 
232 1 76.6791 105.417 0 
32 1 104.557 92.8459 0 
233 1 111.277 105.263 0 
33 1 139.431 92.8846 0 
234 1 146.762 105.482 0 
34 1 174.49 92.8963 0 
235 1 181.409 105.497 0 
35 1 209.342 93.0324 0 
236 1 216.774 105.604 0 
36 1 244.514 93.0659 0 
237 1 251.784 105.472 0 
37 1 279.513 93.0493 0 
238 1 286.605 105.509 0 
38 1 314.85 93.5469 0 
239 1 321.98 105.539 0 
39 1 350.206 96.0508 0 
305 1 -18.1974 116.216 0 
661 2 -8.75 106.088 0 
579 2 8.75 106.088 0 
140 1 22.1433 108.625 0 
479 2 26.25 106.088 0 
570 2 43.75 106.088 0 
131 1 56.9782 108.537 0 
470 2 61.25 106.088 0 
571 2 78.75 106.088 0 
132 1 92.0506 108.556 0 
471 2 96.25 106.088 0 
572 2 113.75 106.088 0 
133 1 127.103 108.464 0 
472 2 131.25 106.088 0 
573 2 148.75 106.088 0 
134 1 162.032 108.548 0 
473 2 166.25 106.088 0 
574 2 183.75 106.088 0 
135 1 197.121 108.678 0 
474 2 201.25 106.088 0 
575 2 218.75 106.088 0 
136 1 232.013 108.63 0 
475 2 236.25 106.088 0 
576 2 253.75 106.088 0 
137 1 266.847 108.609 0 
476 2 271.25 106.088 0 
577 2 288.75 106.088 0 
138 1 302.096 108.662 0 
477 2 306.25 106.088 0 
578 2 323.75 106.088 0 
139 1 337.003 108.794 0 
478 2 341.25 106.088 0 
644 2 -17.5 121.244 0 
49 1 17.224 122.62 0 
388 2 17.5 121.244 0 
50 1 52.0501 122.988 0 
389 2 52.5 121.244 0 
41 1 86.9213 123.307 0 
380 2 87.5 121.244 0 
42 1 122.038 123.382 0 
381 2 122.5 121.244 0 
43 1 157.087 123.463 0 
382 2 157.5 121.244 0 
44 1 192.075 123.955 0 
383 2 192.5 121.244 0 
45 1 226.957 123.321 0 
384 2 227.5 121.244 0 
46 1 261.953 123.158 0 
385 2 262.5 121.244 0 
47 1 297.068 123.381 0 
386 2 297.5 121.244 0 
48 1 332.324 126.255 0 
387 2 332.5 121.244 0 
249 1 -13.1606 134.141 0 
588 2 -8.75 136.399 0 
149 1 6.53399 137.247 0 
488 2 8.75 136.399 0 
250 1 24.6613 135.895 0 
589 2 26.25 136.399 0 
150 1 39.9101 138.621 0 
489 2 43.75 136.399 0 
241 1 58.9838 135.514 0 
580 2 61.25 136.399 0 
141 1 74.4202 138.802 0 
480 2 78.75 136.399 0 
242 1 94.2371 135.839 0 
581 2 96.25 136.399 0 
142 1 109.358 138.889 0 
481 2 113.75 136.399 0 
243 1 129.008 135.693 0 
582 2 131.25 136.399 0 
143 1 144.504 138.813 0 
482 2 148.75 136.399 0 
244 1 164.279 135.903 0 
583 2 166.25 136.399 0 
144 1 179.455 138.93 0 
483 2 183.75 136.399 0 
245 1 199.42 136.061 0 
584 2 201.25 136.399 0 
145 1 214.439 138.759 0 
484 2 218.75 136.399 0 
246 1 234.142 135.605 0 
585 2 236.25 136.399 0 
146 1 249.594 138.833 0 
485 2 253.75 136.399 0 
247 1 269.103 135.89 0 
586 2 271.25 136.399 0 
147 1 284.504 138.761 0 
486 2 288.75 136.399 0 
248 1 304.082 135.706 0 
587 2 306.25 136.399 0 
148 1 319.422 138.923 0 
487 2 323.75 136.399 0 
337 1 345.69 138.813 0 
676 2 341.25 136.399 0 
306 1 -0.300922 149.49 0 
645 2 0 151.554 0 
398 2 35 151.554 0 
399 2 70 151.554 0 
390 2 105 151.554 0 
391 2 140 151.554 0 
392 2 175 151.554 0 
393 2 210 151.554 0 
394 2 245 151.554 0 
395 2 280 151.554 0 
396 2 315 151.554 0 
397 2 350 151.554 0 
662 2 -8.75 166.71 0 
259 1 6.83835 165.57 0 
323 1 -8.20814 165.824 0 
598 2 8.75 166.71 0 
498 2 26.25 166.71 0 
59 1 34.5094 153.812 0 
260 1 41.8256 166.115 0 
599 2 43.75 166.71 0 
499 2 61.25 166.71 0 
60 1 69.4533 153.895 0 
251 1 76.822 166.266 0 
590 2 78.75 166.71 0 
490 2 96.25 166.71 0 
51 1 104.44 153.528 0 
252 1 111.749 166.207 0 
591 2 113.75 166.71 0 
52 1 139.603 153.425 0 
491 2 131.25 166.71 0 
253 1 146.554 165.945 0 
592 2 148.75 166.71 0 
492 2 166.25 166.71 0 
53 1 174.588 153.769 0 
254 1 181.771 166.195 0 
593 2 183.75 166.71 0 
493 2 201.25 166.71 0 
54 1 209.545 153.664 0 
255 1 216.779 166.136 0 
594 2 218.75 166.71 0 
494 2 236.25 166.71 0 
55 1 244.551 153.516 0 
256 1 251.564 165.935 0 
595 2 253.75 166.71 0 
495 2 271.25 166.71 0 
56 1 279.447 153.766 0 
257 1 286.799 166.145 0 
596 2 288.75 166.71 0 
496 2 306.25 166.71 0 
57 1 314.52 153.597 0 
258 1 321.642 165.979 0 
597 2 323.75 166.71 0 
58 1 350.328 156.631 0 
497 2 341.25 166.71 0 
307 1 -18.0186 176.794 0 
159 1 22.0867 169.088 0 
160 1 57.0575 169.235 0 
151 1 91.9742 169.126 0 
152 1 127.192 169.166 0 
153 1 162.073 169.23 0 
154 1 196.912 169.175 0 
155 1 232.131 169.086 0 
156 1 266.925 169.164 0 
157 1 301.971 169.052 0 
158 1 337.057 169.423 0 
646 2 -17.5 181.865 0 
68 1 17.2186 183.545 0 
407 2 17.5 181.865 0 
69 1 51.9859 183.883 0 
408 2 52.5 181.865 0 
70 1 87.0675 183.875 0 
409 2 87.5 181.865 0 
61 1 121.899 183.869 0 
400 2 122.5 181.865 0 
62 1 156.964 184.427 0 
401 2 157.5 181.865 0 
63 1 192.014 184.114 0 
402 2 192.5 181.865 0 
64 1 227.137 184.331 0 
403 2 227.5 181.865 0 
65 1 262.141 184.214 0 
404 2 262.5 181.865 0 
66 1 297.044 183.756 0 
405 2 297.5 181.865 0 
67 1 332.205 186.882 0 
406 2 332.5 181.865 0 
268 1 -13.3728 194.539 0 
607 2 -8.75 197.021 0 
168 1 6.42504 197.957 0 
507 2 8.75 197.021 0 
269 1 24.4326 196.208 0 
608 2 26.25 197.021 0 
169 1 39.4232 199.383 0 
508 2 43.75 197.021 0 
270 1 59.0954 196.401 0 
609 2 61.25 197.021 0 
170 1 74.3404 199.279 0 
509 2 78.75 197.021 0 
261 1 94.1419 196.215 0 
600 2 96.25 197.021 0 
161 1 109.486 199.434 0 
500 2 113.75 197.021 0 
262 1 129.228 196.389 0 
601 2 131.25 197.021 0 
162 1 144.559 199.579 0 
501 2 148.75 197.021 0 
263 1 164.195 196.413 0 
602 2 166.25 197.021 0 
163 1 179.486 199.548 0 
502 2 183.75 197.021 0 
264 1 199.111 196.389 0 
603 2 201.25 197.021 0 
164 1 214.574 199.469 0 
503 2 218.75 197.021 0 
265 1 234.339 196.603 0 
604 2 236.25 197.021 0 
165 1 249.572 199.583 0 
504 2 253.75 197.021 0 
266 1 269.325 196.593 0 
605 2 271.25 197.021 0 
166 1 284.535 199.442 0 
505 2 288.75 197.021 0 
267 1 304.158 196.263 0 
606 2 306.25 197.021 0 
167 1 319.638 199.544 0 
506 2 323.75 197.021 0 
338 1 345.779 199.392 0 
677 2 341.25 197.021 0 
308 1 -0.438854 209.966 0 
647 2 0 212.176 0 
417 2 35 212.176 0 
418 2 70 212.176 0 
419 2 105 212.176 0 
410 2 140 212.176 0 
411 2 175 212.176 0 
412 2 210 212.176 0 
413 2 245 212.176 0 
414 2 280 212.176 0 
415 2 315 212.176 0 
416 2 350 212.176 0 
663 2 -8.75 227.332 0 
278 1 6.90793 226.289 0 
324 1 -8.28188 226.707 0 
617 2 8.75 227.332 0 
517 2 26.25 227.332 0 
78 1 34.6472 214.299 0 
279 1 41.4979 226.706 0 
618 2 43.75 227.332 0 
518 2 61.25 227.332 0 
79 1 69.567 214.441 0 
280 1 76.6631 226.899 0 
619 2 78.75 227.332 0 
519 2 96.25 227.332 0 
80 1 104.357 214.133 0 
271 1 111.553 226.408 0 
610 2 113.75 227.332 0 
71 1 139.51 214.371 0 
510 2 131.25 227.332 0 
272 1 146.612 226.534 0 
611 2 148.75 227.332 0 
72 1 174.449 214.316 0 
511 2 166.25 227.332 0 
273 1 181.845 226.796 0 
612 2 183.75 227.332 0 
512 2 201.25 227.332 0 
73 1 209.535 214.258 0 
274 1 216.848 226.933 0 
613 2 218.75 227.332 0 
513 2 236.25 227.332 0 
74 1 244.494 214.335 0 
275 1 251.658 226.789 0 
614 2 253.75 227.332 0 
514 2 271.25 227.332 0 
75 1 279.666 214.366 0 
276 1 286.877 226.829 0 
615 2 288.75 227.332 0 
515 2 306.25 227.332 0 
76 1 314.473 214.019 0 
277 1 321.692 226.76 0 
616 2 323.75 227.332 0 
77 1 350.283 217.29 0 
516 2 341.25 227.332 0 
309 1 -18.2022 237.397 0 
178 1 22.0806 229.824 0 
179 1 56.9495 229.731 0 
180 1 91.9238 229.627 0 
171 1 126.842 229.716 0 
172 1 161.967 229.717 0 
173 1 197.094 229.833 0 
174 1 231.942 229.869 0 
175 1 266.965 229.894 0 
176 1 301.979 229.735 0 
177 1 337.123 230.108 0 
648 2 -17.5 242.487 0 
87 1 17.0921 244.579 0 
426 2 17.5 242.487 0 
88 1 52.0414 244.89 0 
427 2 52.5 242.487 0 
89 1 86.9565 244.409 0 
428 2 87.5 242.487 0 
90 1 121.872 244.369 0 
429 2 122.5 242.487 0 
81 1 157.027 244.63 0 
420 2 157.5 242.487 0 
82 1 191.875 244.537 0 
421 2 192.5 242.487 0 
83 1 226.971 244.503 0 
422 2 227.5 242.487 0 
84 1 262.178 244.667 0 
423 2 262.5 242.487 0 
85 1 296.868 244.671 0 
424 2 297.5 242.487 0 
86 1 332.307 247.385 0 
425 2 332.5 242.487 0 
287 1 -13.3678 255.189 0 
626 2 -8.75 257.643 0 
187 1 5.71848 258.91 0 
526 2 8.75 257.643 0 
288 1 24.6119 257.229 0 
627 2 26.25 257.643 0 
188 1 39.4117 260.049 0 
527 2 43.75 257.643 0 
289 1 59.2059 257.172 0 
628 2 61.25 257.643 0 
189 1 74.5937 260.156 0 
528 2 78.75 257.643 0 