This is the initial atom setup of ./test.lmpdata
678 atoms 
2 atom types 
339 ellipsoids
339 bonds 
339 bond types 
-27.5 360.0 xlo xhi 
-25.155444566227683 297.9534467583258 ylo yhi 
-0.02 0.02 zlo zhi 

Atoms

1	 1	 17.5	 5.0	 0.001	 1	 5.791406870113643e-05	 0.0	 0	 0	 0	 0.0576	 1 #atom_id|type|x0|y0|z0|e_flag|rho|m|mx|my|mz|chi|trap_id
2	 1	 52.5	 5.0	 0.001	 1	 5.791406870113643e-05	 0.0	 0	 0	 0	 0.0576	 2 #atom_id|type|x0|y0|z0|e_flag|rho|m|mx|my|mz|chi|trap_id
3	 1	 87.5	 5.0	 0.001	 1	 5.791406870113643e-05	 0.0	 0	 0	 0	 0.0576	 3 #atom_id|type|x0|y0|z0|e_flag|rho|m|mx|my|mz|chi|trap_id
4	 1	 122.5	 5.0	 0.001	 1	 5.791406870113643e-05	 0.0	 0	 0	 0	 0.0576	 4 #atom_id|type|x0|y0|z0|e_flag|rho|m|mx|my|mz|chi|trap_id
5	 1	 157.5	 5.0	 0.001	 1	 5.791406870113643e-05	 0.0	 0	 0	 0	 0.0576	 5 #atom_id|type|x0|y0|z0|e_flag|rho|m|mx|my|mz|chi|trap_id
6	 1	 192.5	 5.0	 0.001	 1	 5.791406870113643e-05	 0.0	 0	 0	 0	 0.0576	 6 #atom_id|type|x0|y0|z0|e_flag|rho|m|mx|my|mz|chi|trap_id
7	 1	 227.5	 5.0	 0.001	 1	 5.791406870113643e-05	 0.0	 0	 0	 0	 0.0576	 7 #atom_id|type|x0|y0|z0|e_flag|rho|m|mx|my|mz|chi|trap_id
8	 1	 262.5	 5.0	 0.001	 1	 5.791406870113643e-05	 0.0	 0	 0	 0	 0.0576	 8 #atom_id|type|x0|y0|z0|e_flag|rho|m|mx|my|mz|chi|trap_id
9	 1	 297.5	 5.0	 0.001	 1	 5.791406870113643e-05	 0.0	 0	 0	 0	 0.0576	 9 #atom_id|type|x0|y0|z0|e_flag|rho|m|mx|my|mz|chi|trap_id
10	 1	 332.5	 5.0	 0.001	 1	 5.791406870113643e-05	 0.0	 0	 0	 0	 0.0576	 10 #atom_id|type|x0|y0|z0|e_flag|rho|m|mx|my|mz|chi|trap_id
11	 1	 35.0	 35.31088913245535	 0.001	 1	 5.791406870113643e-05	 0.0	 0	 0	 0	 0.0576	 11 #atom_id|type|x0|y0|z0|e_flag|rho|m|mx|my|mz|chi|trap_id
12	 1	 70.0	 35.31088913245535	 0.001	 1	 5.791406870113643e-05	 0.0	 0	 0	 0	 0.0576	 12 #atom_id|type|x0|y0|z0|e_flag|rho|m|mx|my|mz|chi|trap_id
13	 1	 105.0	 35.31088913245535	 0.001	 1	 5.791406870113643e-05	 0.0	 0	 0	 0	 0.0576	 13 #atom_id|type|x0|y0|z0|e_flag|rho|m|mx|my|mz|chi|trap_id
14	 1	 140.0	 35.31088913245535	 0.001	 1	 5.791406870113643e-05	 0.0	 0	 0	 0	 0.0576	 14 #atom_id|type|x0|y0|z0|e_flag|rho|m|mx|my|mz|chi|trap_id
15	 1	 175.0	 35.31088913245535	 0.001	 1	 5.791406870113643e-05	 0.0	 0	 0	 0	 0.0576	 15 #atom_id|type|x0|y0|z0|e_flag|rho|m|mx|my|mz|chi|trap_id
16	 1	 210.0	 35.31088913245535	 0.001	 1	 5.791406870113643e-05	 0.0	 0	 0	 0	 0.0576	 16 #atom_id|type|x0|y0|z0|e_flag|rho|m|mx|my|mz|chi|trap_id
17	 1	 245.0	 35.31088913245535	 0.001	 1	 5.791406870113643e-05	 0.0	 0	 0	 0	 0.0576	 17 #atom_id|type|x0|y0|z0|e_flag|rho|m|mx|my|mz|chi|trap_id
18	 1	 280.0	 35.31088913245535	 0.001	 1	 5.791406870113643e-05	 0.0	 0	 0	 0	 0.0576	 18 #atom_id|type|x0|y0|z0|e_flag|rho|m|mx|my|mz|chi|trap_id
19	 1	 315.0	 35.31088913245535	 0.001	 1	 5.791406870113643e-05	 0.0	 0	 0	 0	 0.0576	 19 #atom_id|type|x0|y0|z0|e_flag|rho|m|mx|my|mz|chi|trap_id
20	 1	 350.0	 35.31088913245535	 0.001	 1	 5.791406870113643e-05	 0.0	 0	 0	 0	 0.0576	 20 #atom_id|type|x0|y0|z0|e_flag|rho|m|mx|my|mz|chi|trap_id
21	 1	 52.50000000000001	 65.6217782649107	 0.001	 1	 5.791406870113643e-05	 0.0	 0	 0	 0	 0.0576	 21 #atom_id|type|x0|y0|z0|e_flag|rho|m|mx|my|mz|chi|trap_id
22	 1	 87.5	 65.6217782649107	 0.001	 1	 5.791406870113643e-05	 0.0	 0	 0	 0	 0.0576	 22 #atom_id|type|x0|y0|z0|e_flag|rho|m|mx|my|mz|chi|trap_id
23	 1	 122.5	 65.6217782649107	 0.001	 1	 5.791406870113643e-05	 0.0	 0	 0	 0	 0.0576	 23 #atom_id|type|x0|y0|z0|e_flag|rho|m|mx|my|mz|chi|trap_id
24	 1	 157.5	 65.6217782649107	 0.001	 1	 5.791406870113643e-05	 0.0	 0	 0	 0	 0.0576	 24 #atom_id|type|x0|y0|z0|e_flag|rho|m|mx|my|mz|chi|trap_id
25	 1	 192.5	 65.6217782649107	 0.001	 1	 5.791406870113643e-05	 0.0	 0	 0	 0	 0.0576	 25 #atom_id|type|x0|y0|z0|e_flag|rho|m|mx|my|mz|chi|trap_id
26	 1	 227.5	 65.6217782649107	 0.001	 1	 5.791406870113643e-05	 0.0	 0	 0	 0	 0.0576	 26 #atom_id|type|x0|y0|z0|e_flag|rho|m|mx|my|mz|chi|trap_id
27	 1	 262.5	 65.6217782649107	 0.001	 1	 5.791406870113643e-05	 0.0	 0	 0	 0	 0.0576	 27 #atom_id|type|x0|y0|z0|e_flag|rho|m|mx|my|mz|chi|trap_id
28	 1	 297.5	 65.6217782649107	 0.001	 1	 5.791406870113643e-05	 0.0	 0	 0	 0	 0.0576	 28 #atom_id|type|x0|y0|z0|e_flag|rho|m|mx|my|mz|chi|trap_id
29	 1	 332.5	 65.6217782649107	 0.001	 1	 5.791406870113643e-05	 0.0	 0	 0	 0	 0.0576	 29 #atom_id|type|x0|y0|z0|e_flag|rho|m|mx|my|mz|chi|trap_id
30	 1	 17.5	 65.6217782649107	 0.001	 1	 5.791406870113643e-05	 0.0	 0	 0	 0	 0.0576	 30 #atom_id|type|x0|y0|z0|e_flag|rho|m|mx|my|mz|chi|trap_id
31	 1	 70.00000000000001	 95.93266739736606	 0.001	 1	 5.791406870113643e-05	 0.0	 0	 0	 0	 0.0576	 31 #atom_id|type|x0|y0|z0|e_flag|rho|m|mx|my|mz|chi|trap_id
32	 1	 105.00000000000001	 95.93266739736606	 0.001	 1	 5.791406870113643e-05	 0.0	 0	 0	 0	 0.0576	 32 #atom_id|type|x0|y0|z0|e_flag|rho|m|mx|my|mz|chi|trap_id
33	 1	 140.0	 95.93266739736606	 0.001	 1	 5.791406870113643e-05	 0.0	 0	 0	 0	 0.0576	 33 #atom_id|type|x0|y0|z0|e_flag|rho|m|mx|my|mz|chi|trap_id
34	 1	 175.0	 95.93266739736606	 0.001	 1	 5.791406870113643e-05	 0.0	 0	 0	 0	 0.0576	 34 #atom_id|type|x0|y0|z0|e_flag|rho|m|mx|my|mz|chi|trap_id
35	 1	 210.0	 95.93266739736606	 0.001	 1	 5.791406870113643e-05	 0.0	 0	 0	 0	 0.0576	 35 #atom_id|type|x0|y0|z0|e_flag|rho|m|mx|my|mz|chi|trap_id
36	 1	 245.0	 95.93266739736606	 0.001	 1	 5.791406870113643e-05	 0.0	 0	 0	 0	 0.0576	 36 #atom_id|type|x0|y0|z0|e_flag|rho|m|mx|my|mz|chi|trap_id
37	 1	 280.0	 95.93266739736606	 0.001	 1	 5.791406870113643e-05	 0.0	 0	 0	 0	 0.0576	 37 #atom_id|type|x0|y0|z0|e_flag|rho|m|mx|my|mz|chi|trap_id
38	 1	 315.0	 95.93266739736606	 0.001	 1	 5.791406870113643e-05	 0.0	 0	 0	 0	 0.0576	 38 #atom_id|type|x0|y0|z0|e_flag|rho|m|mx|my|mz|chi|trap_id
39	 1	 350.0	 95.93266739736606	 0.001	 1	 5.791406870113643e-05	 0.0	 0	 0	 0	 0.0576	 39 #atom_id|type|x0|y0|z0|e_flag|rho|m|mx|my|mz|chi|trap_id
40	 1	 35.0	 95.93266739736606	 0.001	 1	 5.791406870113643e-05	 0.0	 0	 0	 0	 0.0576	 40 #atom_id|type|x0|y0|z0|e_flag|rho|m|mx|my|mz|chi|trap_id
41	 1	 87.50000000000001	 126.2435565298214	 0.001	 1	 5.791406870113643e-05	 0.0	 0	 0	 0	 0.0576	 41 #atom_id|type|x0|y0|z0|e_flag|rho|m|mx|my|mz|chi|trap_id
42	 1	 122.50000000000001	 126.2435565298214	 0.001	 1	 5.791406870113643e-05	 0.0	 0	 0	 0	 0.0576	 42 #atom_id|type|x0|y0|z0|e_flag|rho|m|mx|my|mz|chi|trap_id
43	 1	 157.5	 126.2435565298214	 0.001	 1	 5.791406870113643e-05	 0.0	 0	 0	 0	 0.0576	 43 #atom_id|type|x0|y0|z0|e_flag|rho|m|mx|my|mz|chi|trap_id
44	 1	 192.5	 126.2435565298214	 0.001	 1	 5.791406870113643e-05	 0.0	 0	 0	 0	 0.0576	 44 #atom_id|type|x0|y0|z0|e_flag|rho|m|mx|my|mz|chi|trap_id
45	 1	 227.5	 126.2435565298214	 0.001	 1	 5.791406870113643e-05	 0.0	 0	 0	 0	 0.0576	 45 #atom_id|type|x0|y0|z0|e_flag|rho|m|mx|my|mz|chi|trap_id
46	 1	 262.5	 126.2435565298214	 0.001	 1	 5.791406870113643e-05	 0.0	 0	 0	 0	 0.0576	 46 #atom_id|type|x0|y0|z0|e_flag|rho|m|mx|my|mz|chi|trap_id
47	 1	 297.5	 126.2435565298214	 0.001	 1	 5.791406870113643e-05	 0.0	 0	 0	 0	 0.0576	 47 #atom_id|type|x0|y0|z0|e_flag|rho|m|mx|my|mz|chi|trap_id
48	 1	 332.5	 126.2435565298214	 0.001	 1	 5.791406870113643e-05	 0.0	 0	 0	 0	 0.0576	 48 #atom_id|type|x0|y0|z0|e_flag|rho|m|mx|my|mz|chi|trap_id
49	 1	 17.5	 126.2435565298214	 0.001	 1	 5.791406870113643e-05	 0.0	 0	 0	 0	 0.0576	 49 #atom_id|type|x0|y0|z0|e_flag|rho|m|mx|my|mz|chi|trap_id
50	 1	 52.5	 126.2435565298214	 0.001	 1	 5.791406870113643e-05	 0.0	 0	 0	 0	 0.0576	 50 #atom_id|type|x0|y0|z0|e_flag|rho|m|mx|my|mz|chi|trap_id
51	 1	 105.00000000000001	 156.55444566227675	 0.001	 1	 5.791406870113643e-05	 0.0	 0	 0	 0	 0.0576	 51 #atom_id|type|x0|y0|z0|e_flag|rho|m|mx|my|mz|chi|trap_id
52	 1	 140.0	 156.55444566227675	 0.001	 1	 5.791406870113643e-05	 0.0	 0	 0	 0	 0.0576	 52 #atom_id|type|x0|y0|z0|e_flag|rho|m|mx|my|mz|chi|trap_id
53	 1	 175.0	 156.55444566227675	 0.001	 1	 5.791406870113643e-05	 0.0	 0	 0	 0	 0.0576	 53 #atom_id|type|x0|y0|z0|e_flag|rho|m|mx|my|mz|chi|trap_id
54	 1	 210.0	 156.55444566227675	 0.001	 1	 5.791406870113643e-05	 0.0	 0	 0	 0	 0.0576	 54 #atom_id|type|x0|y0|z0|e_flag|rho|m|mx|my|mz|chi|trap_id
55	 1	 245.0	 156.55444566227675	 0.001	 1	 5.791406870113643e-05	 0.0	 0	 0	 0	 0.0576	 55 #atom_id|type|x0|y0|z0|e_flag|rho|m|mx|my|mz|chi|trap_id
56	 1	 280.0	 156.55444566227675	 0.001	 1	 5.791406870113643e-05	 0.0	 0	 0	 0	 0.0576	 56 #atom_id|type|x0|y0|z0|e_flag|rho|m|mx|my|mz|chi|trap_id
57	 1	 315.0	 156.55444566227675	 0.001	 1	 5.791406870113643e-05	 0.0	 0	 0	 0	 0.0576	 57 #atom_id|type|x0|y0|z0|e_flag|rho|m|mx|my|mz|chi|trap_id
58	 1	 350.0	 156.55444566227675	 0.001	 1	 5.791406870113643e-05	 0.0	 0	 0	 0	 0.0576	 58 #atom_id|type|x0|y0|z0|e_flag|rho|m|mx|my|mz|chi|trap_id
59	 1	 35.0	 156.55444566227675	 0.001	 1	 5.791406870113643e-05	 0.0	 0	 0	 0	 0.0576	 59 #atom_id|type|x0|y0|z0|e_flag|rho|m|mx|my|mz|chi|trap_id
60	 1	 70.0	 156.55444566227675	 0.001	 1	 5.791406870113643e-05	 0.0	 0	 0	 0	 0.0576	 60 #atom_id|type|x0|y0|z0|e_flag|rho|m|mx|my|mz|chi|trap_id
61	 1	 122.50000000000003	 186.86533479473212	 0.001	 1	 5.791406870113643e-05	 0.0	 0	 0	 0	 0.0576	 61 #atom_id|type|x0|y0|z0|e_flag|rho|m|mx|my|mz|chi|trap_id
62	 1	 157.50000000000003	 186.86533479473212	 0.001	 1	 5.791406870113643e-05	 0.0	 0	 0	 0	 0.0576	 62 #atom_id|type|x0|y0|z0|e_flag|rho|m|mx|my|mz|chi|trap_id
63	 1	 192.50000000000003	 186.86533479473212	 0.001	 1	 5.791406870113643e-05	 0.0	 0	 0	 0	 0.0576	 63 #atom_id|type|x0|y0|z0|e_flag|rho|m|mx|my|mz|chi|trap_id
64	 1	 227.50000000000003	 186.86533479473212	 0.001	 1	 5.791406870113643e-05	 0.0	 0	 0	 0	 0.0576	 64 #atom_id|type|x0|y0|z0|e_flag|rho|m|mx|my|mz|chi|trap_id
65	 1	 262.50000000000006	 186.86533479473212	 0.001	 1	 5.791406870113643e-05	 0.0	 0	 0	 0	 0.0576	 65 #atom_id|type|x0|y0|z0|e_flag|rho|m|mx|my|mz|chi|trap_id
66	 1	 297.5	 186.86533479473212	 0.001	 1	 5.791406870113643e-05	 0.0	 0	 0	 0	 0.0576	 66 #atom_id|type|x0|y0|z0|e_flag|rho|m|mx|my|mz|chi|trap_id
67	 1	 332.5	 186.86533479473212	 0.001	 1	 5.791406870113643e-05	 0.0	 0	 0	 0	 0.0576	 67 #atom_id|type|x0|y0|z0|e_flag|rho|m|mx|my|mz|chi|trap_id
68	 1	 17.5	 186.86533479473212	 0.001	 1	 5.791406870113643e-05	 0.0	 0	 0	 0	 0.0576	 68 #atom_id|type|x0|y0|z0|e_flag|rho|m|mx|my|mz|chi|trap_id
69	 1	 52.5	 186.86533479473212	 0.001	 1	 5.791406870113643e-05	 0.0	 0	 0	 0	 0.0576	 69 #atom_id|type|x0|y0|z0|e_flag|rho|m|mx|my|mz|chi|trap_id
70	 1	 87.5	 186.86533479473212	 0.001	 1	 5.791406870113643e-05	 0.0	 0	 0	 0	 0.0576	 70 #atom_id|type|x0|y0|z0|e_flag|rho|m|mx|my|mz|chi|trap_id
71	 1	 140.00000000000003	 217.17622392718746	 0.001	 1	 5.791406870113643e-05	 0.0	 0	 0	 0	 0.0576	 71 #atom_id|type|x0|y0|z0|e_flag|rho|m|mx|my|mz|chi|trap_id
72	 1	 175.00000000000003	 217.17622392718746	 0.001	 1	 5.791406870113643e-05	 0.0	 0	 0	 0	 0.0576	 72 #atom_id|type|x0|y0|z0|e_flag|rho|m|mx|my|mz|chi|trap_id
73	 1	 210.00000000000003	 217.17622392718746	 0.001	 1	 5.791406870113643e-05	 0.0	 0	 0	 0	 0.0576	 73 #atom_id|type|x0|y0|z0|e_flag|rho|m|mx|my|mz|chi|trap_id
74	 1	 245.00000000000003	 217.17622392718746	 0.001	 1	 5.791406870113643e-05	 0.0	 0	 0	 0	 0.0576	 74 #atom_id|type|x0|y0|z0|e_flag|rho|m|mx|my|mz|chi|trap_id
75	 1	 280.0	 217.17622392718746	 0.001	 1	 5.791406870113643e-05	 0.0	 0	 0	 0	 0.0576	 75 #atom_id|type|x0|y0|z0|e_flag|rho|m|mx|my|mz|chi|trap_id
76	 1	 315.0	 217.17622392718746	 0.001	 1	 5.791406870113643e-05	 0.0	 0	 0	 0	 0.0576	 76 #atom_id|type|x0|y0|z0|e_flag|rho|m|mx|my|mz|chi|trap_id
77	 1	 350.0	 217.17622392718746	 0.001	 1	 5.791406870113643e-05	 0.0	 0	 0	 0	 0.0576	 77 #atom_id|type|x0|y0|z0|e_flag|rho|m|mx|my|mz|chi|trap_id
78	 1	 35.0	 217.17622392718746	 0.001	 1	 5.791406870113643e-05	 0.0	 0	 0	 0	 0.0576	 78 #atom_id|type|x0|y0|z0|e_flag|rho|m|mx|my|mz|chi|trap_id
79	 1	 70.0	 217.17622392718746	 0.001	 1	 5.791406870113643e-05	 0.0	 0	 0	 0	 0.0576	 79 #atom_id|type|x0|y0|z0|e_flag|rho|m|mx|my|mz|chi|trap_id
80	 1	 105.0	 217.17622392718746	 0.001	 1	 5.791406870113643e-05	 0.0	 0	 0	 0	 0.0576	 80 #atom_id|type|x0|y0|z0|e_flag|rho|m|mx|my|mz|chi|trap_id
81	 1	 157.50000000000003	 247.4871130596428	 0.001	 1	 5.791406870113643e-05	 0.0	 0	 0	 0	 0.0576	 81 #atom_id|type|x0|y0|z0|e_flag|rho|m|mx|my|mz|chi|trap_id
82	 1	 192.50000000000003	 247.4871130596428	 0.001	 1	 5.791406870113643e-05	 0.0	 0	 0	 0	 0.0576	 82 #atom_id|type|x0|y0|z0|e_flag|rho|m|mx|my|mz|chi|trap_id
83	 1	 227.50000000000003	 247.4871130596428	 0.001	 1	 5.791406870113643e-05	 0.0	 0	 0	 0	 0.0576	 83 #atom_id|type|x0|y0|z0|e_flag|rho|m|mx|my|mz|chi|trap_id
84	 1	 262.50000000000006	 247.4871130596428	 0.001	 1	 5.791406870113643e-05	 0.0	 0	 0	 0	 0.0576	 84 #atom_id|type|x0|y0|z0|e_flag|rho|m|mx|my|mz|chi|trap_id
85	 1	 297.5	 247.4871130596428	 0.001	 1	 5.791406870113643e-05	 0.0	 0	 0	 0	 0.0576	 85 #atom_id|type|x0|y0|z0|e_flag|rho|m|mx|my|mz|chi|trap_id
86	 1	 332.5	 247.4871130596428	 0.001	 1	 5.791406870113643e-05	 0.0	 0	 0	 0	 0.0576	 86 #atom_id|type|x0|y0|z0|e_flag|rho|m|mx|my|mz|chi|trap_id
87	 1	 17.5	 247.4871130596428	 0.001	 1	 5.791406870113643e-05	 0.0	 0	 0	 0	 0.0576	 87 #atom_id|type|x0|y0|z0|e_flag|rho|m|mx|my|mz|chi|trap_id
88	 1	 52.5	 247.4871130596428	 0.001	 1	 5.791406870113643e-05	 0.0	 0	 0	 0	 0.0576	 88 #atom_id|type|x0|y0|z0|e_flag|rho|m|mx|my|mz|chi|trap_id
89	 1	 87.5	 247.4871130596428	 0.001	 1	 5.791406870113643e-05	 0.0	 0	 0	 0	 0.0576	 89 #atom_id|type|x0|y0|z0|e_flag|rho|m|mx|my|mz|chi|trap_id
90	 1	 122.5	 247.4871130596428	 0.001	 1	 5.791406870113643e-05	 0.0	 0	 0	 0	 0.0576	 90 #atom_id|type|x0|y0|z0|e_flag|rho|m|mx|my|mz|chi|trap_id
91	 1	 175.00000000000003	 277.7980021920981	 0.001	 1	 5.791406870113643e-05	 0.0	 0	 0	 0	 0.0576	 91 #atom_id|type|x0|y0|z0|e_flag|rho|m|mx|my|mz|chi|trap_id
92	 1	 210.00000000000003	 277.7980021920981	 0.001	 1	 5.791406870113643e-05	 0.0	 0	 0	 0	 0.0576	 92 #atom_id|type|x0|y0|z0|e_flag|rho|m|mx|my|mz|chi|trap_id
93	 1	 245.00000000000003	 277.7980021920981	 0.001	 1	 5.791406870113643e-05	 0.0	 0	 0	 0	 0.0576	 93 #atom_id|type|x0|y0|z0|e_flag|rho|m|mx|my|mz|chi|trap_id
94	 1	 280.0	 277.7980021920981	 0.001	 1	 5.791406870113643e-05	 0.0	 0	 0	 0	 0.0576	 94 #atom_id|type|x0|y0|z0|e_flag|rho|m|mx|my|mz|chi|trap_id
95	 1	 315.0	 277.7980021920981	 0.001	 1	 5.791406870113643e-05	 0.0	 0	 0	 0	 0.0576	 95 #atom_id|type|x0|y0|z0|e_flag|rho|m|mx|my|mz|chi|trap_id
96	 1	 350.0	 277.7980021920981	 0.001	 1	 5.791406870113643e-05	 0.0	 0	 0	 0	 0.0576	 96 #atom_id|type|x0|y0|z0|e_flag|rho|m|mx|my|mz|chi|trap_id
97	 1	 35.0	 277.7980021920981	 0.001	 1	 5.791406870113643e-05	 0.0	 0	 0	 0	 0.0576	 97 #atom_id|type|x0|y0|z0|e_flag|rho|m|mx|my|mz|chi|trap_id
98	 1	 70.0	 277.7980021920981	 0.001	 1	 5.791406870113643e-05	 0.0	 0	 0	 0	 0.0576	 98 #atom_id|type|x0|y0|z0|e_flag|rho|m|mx|my|mz|chi|trap_id
99	 1	 105.0	 277.7980021920981	 0.001	 1	 5.791406870113643e-05	 0.0	 0	 0	 0	 0.0576	 99 #atom_id|type|x0|y0|z0|e_flag|rho|m|mx|my|mz|chi|trap_id
100	 1	 140.0	 277.7980021920981	 0.001	 1	 5.791406870113643e-05	 0.0	 0	 0	 0	 0.0576	 100 #atom_id|type|x0|y0|z0|e_flag|rho|m|mx|my|mz|chi|trap_id
101	 1	 4.419872981077808	 17.655444566227676	 0.001	 1	 5.791406870113643e-05	 0.0	 0	 0	 0	 0.0576	 101 #atom_id|type|x0|y0|z0|e_flag|rho|m|mx|my|mz|chi|trap_id
102	 1	 39.41987298107781	 17.655444566227676	 0.001	 1	 5.791406870113643e-05	 0.0	 0	 0	 0	 0.0576	 102 #atom_id|type|x0|y0|z0|e_flag|rho|m|mx|my|mz|chi|trap_id
103	 1	 74.4198729810778	 17.655444566227676	 0.001	 1	 5.791406870113643e-05	 0.0	 0	 0	 0	 0.0576	 103 #atom_id|type|x0|y0|z0|e_flag|rho|m|mx|my|mz|chi|trap_id
104	 1	 109.4198729810778	 17.655444566227676	 0.001	 1	 5.791406870113643e-05	 0.0	 0	 0	 0	 0.0576	 104 #atom_id|type|x0|y0|z0|e_flag|rho|m|mx|my|mz|chi|trap_id
105	 1	 144.41987298107782	 17.655444566227676	 0.001	 1	 5.791406870113643e-05	 0.0	 0	 0	 0	 0.0576	 105 #atom_id|type|x0|y0|z0|e_flag|rho|m|mx|my|mz|chi|trap_id
106	 1	 179.41987298107782	 17.655444566227676	 0.001	 1	 5.791406870113643e-05	 0.0	 0	 0	 0	 0.0576	 106 #atom_id|type|x0|y0|z0|e_flag|rho|m|mx|my|mz|chi|trap_id
107	 1	 214.41987298107782	 17.655444566227676	 0.001	 1	 5.791406870113643e-05	 0.0	 0	 0	 0	 0.0576	 107 #atom_id|type|x0|y0|z0|e_flag|rho|m|mx|my|mz|chi|trap_id
108	 1	 249.41987298107782	 17.655444566227676	 0.001	 1	 5.791406870113643e-05	 0.0	 0	 0	 0	 0.0576	 108 #atom_id|type|x0|y0|z0|e_flag|rho|m|mx|my|mz|chi|trap_id
109	 1	 284.4198729810778	 17.655444566227676	 0.001	 1	 5.791406870113643e-05	 0.0	 0	 0	 0	 0.0576	 109 #atom_id|type|x0|y0|z0|e_flag|rho|m|mx|my|mz|chi|trap_id
110	 1	 319.4198729810778	 17.655444566227676	 0.001	 1	 5.791406870113643e-05	 0.0	 0	 0	 0	 0.0576	 110 #atom_id|type|x0|y0|z0|e_flag|rho|m|mx|my|mz|chi|trap_id
111	 1	 21.919872981077813	 47.96633369868303	 0.001	 1	 5.791406870113643e-05	 0.0	 0	 0	 0	 0.0576	 111 #atom_id|type|x0|y0|z0|e_flag|rho|m|mx|my|mz|chi|trap_id
112	 1	 56.91987298107781	 47.96633369868303	 0.001	 1	 5.791406870113643e-05	 0.0	 0	 0	 0	 0.0576	 112 #atom_id|type|x0|y0|z0|e_flag|rho|m|mx|my|mz|chi|trap_id
113	 1	 91.9198729810778	 47.96633369868303	 0.001	 1	 5.791406870113643e-05	 0.0	 0	 0	 0	 0.0576	 113 #atom_id|type|x0|y0|z0|e_flag|rho|m|mx|my|mz|chi|trap_id
114	 1	 126.9198729810778	 47.96633369868303	 0.001	 1	 5.791406870113643e-05	 0.0	 0	 0	 0	 0.0576	 114 #atom_id|type|x0|y0|z0|e_flag|rho|m|mx|my|mz|chi|trap_id
115	 1	 161.91987298107782	 47.96633369868303	 0.001	 1	 5.791406870113643e-05	 0.0	 0	 0	 0	 0.0576	 115 #atom_id|type|x0|y0|z0|e_flag|rho|m|mx|my|mz|chi|trap_id
116	 1	 196.91987298107782	 47.96633369868303	 0.001	 1	 5.791406870113643e-05	 0.0	 0	 0	 0	 0.0576	 116 #atom_id|type|x0|y0|z0|e_flag|rho|m|mx|my|mz|chi|trap_id
117	 1	 231.91987298107782	 47.96633369868303	 0.001	 1	 5.791406870113643e-05	 0.0	 0	 0	 0	 0.0576	 117 #atom_id|type|x0|y0|z0|e_flag|rho|m|mx|my|mz|chi|trap_id
118	 1	 266.9198729810778	 47.96633369868303	 0.001	 1	 5.791406870113643e-05	 0.0	 0	 0	 0	 0.0576	 118 #atom_id|type|x0|y0|z0|e_flag|rho|m|mx|my|mz|chi|trap_id
119	 1	 301.9198729810778	 47.96633369868303	 0.001	 1	 5.791406870113643e-05	 0.0	 0	 0	 0	 0.0576	 119 #atom_id|type|x0|y0|z0|e_flag|rho|m|mx|my|mz|chi|trap_id
120	 1	 336.9198729810778	 47.96633369868303	 0.001	 1	 5.791406870113643e-05	 0.0	 0	 0	 0	 0.0576	 120 #atom_id|type|x0|y0|z0|e_flag|rho|m|mx|my|mz|chi|trap_id
121	 1	 39.419872981077816	 78.27722283113837	 0.001	 1	 5.791406870113643e-05	 0.0	 0	 0	 0	 0.0576	 121 #atom_id|type|x0|y0|z0|e_flag|rho|m|mx|my|mz|chi|trap_id
122	 1	 74.4198729810778	 78.27722283113837	 0.001	 1	 5.791406870113643e-05	 0.0	 0	 0	 0	 0.0576	 122 #atom_id|type|x0|y0|z0|e_flag|rho|m|mx|my|mz|chi|trap_id
123	 1	 109.4198729810778	 78.27722283113837	 0.001	 1	 5.791406870113643e-05	 0.0	 0	 0	 0	 0.0576	 123 #atom_id|type|x0|y0|z0|e_flag|rho|m|mx|my|mz|chi|trap_id
124	 1	 144.41987298107782	 78.27722283113837	 0.001	 1	 5.791406870113643e-05	 0.0	 0	 0	 0	 0.0576	 124 #atom_id|type|x0|y0|z0|e_flag|rho|m|mx|my|mz|chi|trap_id
125	 1	 179.41987298107782	 78.27722283113837	 0.001	 1	 5.791406870113643e-05	 0.0	 0	 0	 0	 0.0576	 125 #atom_id|type|x0|y0|z0|e_flag|rho|m|mx|my|mz|chi|trap_id
126	 1	 214.41987298107782	 78.27722283113837	 0.001	 1	 5.791406870113643e-05	 0.0	 0	 0	 0	 0.0576	 126 #atom_id|type|x0|y0|z0|e_flag|rho|m|mx|my|mz|chi|trap_id
127	 1	 249.41987298107782	 78.27722283113837	 0.001	 1	 5.791406870113643e-05	 0.0	 0	 0	 0	 0.0576	 127 #atom_id|type|x0|y0|z0|e_flag|rho|m|mx|my|mz|chi|trap_id
128	 1	 284.4198729810778	 78.27722283113837	 0.001	 1	 5.791406870113643e-05	 0.0	 0	 0	 0	 0.0576	 128 #atom_id|type|x0|y0|z0|e_flag|rho|m|mx|my|mz|chi|trap_id
129	 1	 319.4198729810778	 78.27722283113837	 0.001	 1	 5.791406870113643e-05	 0.0	 0	 0	 0	 0.0576	 129 #atom_id|type|x0|y0|z0|e_flag|rho|m|mx|my|mz|chi|trap_id
130	 1	 4.419872981077808	 78.27722283113837	 0.001	 1	 5.791406870113643e-05	 0.0	 0	 0	 0	 0.0576	 130 #atom_id|type|x0|y0|z0|e_flag|rho|m|mx|my|mz|chi|trap_id
131	 1	 56.91987298107782	 108.58811196359373	 0.001	 1	 5.791406870113643e-05	 0.0	 0	 0	 0	 0.0576	 131 #atom_id|type|x0|y0|z0|e_flag|rho|m|mx|my|mz|chi|trap_id
132	 1	 91.91987298107782	 108.58811196359373	 0.001	 1	 5.791406870113643e-05	 0.0	 0	 0	 0	 0.0576	 132 #atom_id|type|x0|y0|z0|e_flag|rho|m|mx|my|mz|chi|trap_id
133	 1	 126.91987298107783	 108.58811196359373	 0.001	 1	 5.791406870113643e-05	 0.0	 0	 0	 0	 0.0576	 133 #atom_id|type|x0|y0|z0|e_flag|rho|m|mx|my|mz|chi|trap_id
134	 1	 161.91987298107782	 108.58811196359373	 0.001	 1	 5.791406870113643e-05	 0.0	 0	 0	 0	 0.0576	 134 #atom_id|type|x0|y0|z0|e_flag|rho|m|mx|my|mz|chi|trap_id
135	 1	 196.91987298107782	 108.58811196359373	 0.001	 1	 5.791406870113643e-05	 0.0	 0	 0	 0	 0.0576	 135 #atom_id|type|x0|y0|z0|e_flag|rho|m|mx|my|mz|chi|trap_id
136	 1	 231.91987298107782	 108.58811196359373	 0.001	 1	 5.791406870113643e-05	 0.0	 0	 0	 0	 0.0576	 136 #atom_id|type|x0|y0|z0|e_flag|rho|m|mx|my|mz|chi|trap_id
137	 1	 266.9198729810778	 108.58811196359373	 0.001	 1	 5.791406870113643e-05	 0.0	 0	 0	 0	 0.0576	 137 #atom_id|type|x0|y0|z0|e_flag|rho|m|mx|my|mz|chi|trap_id
138	 1	 301.9198729810778	 108.58811196359373	 0.001	 1	 5.791406870113643e-05	 0.0	 0	 0	 0	 0.0576	 138 #atom_id|type|x0|y0|z0|e_flag|rho|m|mx|my|mz|chi|trap_id
139	 1	 336.9198729810778	 108.58811196359373	 0.001	 1	 5.791406870113643e-05	 0.0	 0	 0	 0	 0.0576	 139 #atom_id|type|x0|y0|z0|e_flag|rho|m|mx|my|mz|chi|trap_id
140	 1	 21.919872981077805	 108.58811196359373	 0.001	 1	 5.791406870113643e-05	 0.0	 0	 0	 0	 0.0576	 140 #atom_id|type|x0|y0|z0|e_flag|rho|m|mx|my|mz|chi|trap_id
141	 1	 74.41987298107782	 138.89900109604906	 0.001	 1	 5.791406870113643e-05	 0.0	 0	 0	 0	 0.0576	 141 #atom_id|type|x0|y0|z0|e_flag|rho|m|mx|my|mz|chi|trap_id
142	 1	 109.41987298107782	 138.89900109604906	 0.001	 1	 5.791406870113643e-05	 0.0	 0	 0	 0	 0.0576	 142 #atom_id|type|x0|y0|z0|e_flag|rho|m|mx|my|mz|chi|trap_id
143	 1	 144.41987298107782	 138.89900109604906	 0.001	 1	 5.791406870113643e-05	 0.0	 0	 0	 0	 0.0576	 143 #atom_id|type|x0|y0|z0|e_flag|rho|m|mx|my|mz|chi|trap_id
144	 1	 179.41987298107782	 138.89900109604906	 0.001	 1	 5.791406870113643e-05	 0.0	 0	 0	 0	 0.0576	 144 #atom_id|type|x0|y0|z0|e_flag|rho|m|mx|my|mz|chi|trap_id
145	 1	 214.41987298107782	 138.89900109604906	 0.001	 1	 5.791406870113643e-05	 0.0	 0	 0	 0	 0.0576	 145 #atom_id|type|x0|y0|z0|e_flag|rho|m|mx|my|mz|chi|trap_id
146	 1	 249.41987298107782	 138.89900109604906	 0.001	 1	 5.791406870113643e-05	 0.0	 0	 0	 0	 0.0576	 146 #atom_id|type|x0|y0|z0|e_flag|rho|m|mx|my|mz|chi|trap_id
147	 1	 284.4198729810778	 138.89900109604906	 0.001	 1	 5.791406870113643e-05	 0.0	 0	 0	 0	 0.0576	 147 #atom_id|type|x0|y0|z0|e_flag|rho|m|mx|my|mz|chi|trap_id
148	 1	 319.4198729810778	 138.89900109604906	 0.001	 1	 5.791406870113643e-05	 0.0	 0	 0	 0	 0.0576	 148 #atom_id|type|x0|y0|z0|e_flag|rho|m|mx|my|mz|chi|trap_id
149	 1	 4.419872981077808	 138.89900109604906	 0.001	 1	 5.791406870113643e-05	 0.0	 0	 0	 0	 0.0576	 149 #atom_id|type|x0|y0|z0|e_flag|rho|m|mx|my|mz|chi|trap_id
150	 1	 39.41987298107781	 138.89900109604906	 0.001	 1	 5.791406870113643e-05	 0.0	 0	 0	 0	 0.0576	 150 #atom_id|type|x0|y0|z0|e_flag|rho|m|mx|my|mz|chi|trap_id
151	 1	 91.91987298107782	 169.20989022850443	 0.001	 1	 5.791406870113643e-05	 0.0	 0	 0	 0	 0.0576	 151 #atom_id|type|x0|y0|z0|e_flag|rho|m|mx|my|mz|chi|trap_id
152	 1	 126.91987298107783	 169.20989022850443	 0.001	 1	 5.791406870113643e-05	 0.0	 0	 0	 0	 0.0576	 152 #atom_id|type|x0|y0|z0|e_flag|rho|m|mx|my|mz|chi|trap_id
153	 1	 161.91987298107782	 169.20989022850443	 0.001	 1	 5.791406870113643e-05	 0.0	 0	 0	 0	 0.0576	 153 #atom_id|type|x0|y0|z0|e_flag|rho|m|mx|my|mz|chi|trap_id
154	 1	 196.91987298107782	 169.20989022850443	 0.001	 1	 5.791406870113643e-05	 0.0	 0	 0	 0	 0.0576	 154 #atom_id|type|x0|y0|z0|e_flag|rho|m|mx|my|mz|chi|trap_id
155	 1	 231.91987298107782	 169.20989022850443	 0.001	 1	 5.791406870113643e-05	 0.0	 0	 0	 0	 0.0576	 155 #atom_id|type|x0|y0|z0|e_flag|rho|m|mx|my|mz|chi|trap_id
156	 1	 266.9198729810778	 169.20989022850443	 0.001	 1	 5.791406870113643e-05	 0.0	 0	 0	 0	 0.0576	 156 #atom_id|type|x0|y0|z0|e_flag|rho|m|mx|my|mz|chi|trap_id
157	 1	 301.9198729810778	 169.20989022850443	 0.001	 1	 5.791406870113643e-05	 0.0	 0	 0	 0	 0.0576	 157 #atom_id|type|x0|y0|z0|e_flag|rho|m|mx|my|mz|chi|trap_id
158	 1	 336.9198729810778	 169.20989022850443	 0.001	 1	 5.791406870113643e-05	 0.0	 0	 0	 0	 0.0576	 158 #atom_id|type|x0|y0|z0|e_flag|rho|m|mx|my|mz|chi|trap_id
159	 1	 21.919872981077805	 169.20989022850443	 0.001	 1	 5.791406870113643e-05	 0.0	 0	 0	 0	 0.0576	 159 #atom_id|type|x0|y0|z0|e_flag|rho|m|mx|my|mz|chi|trap_id
160	 1	 56.91987298107781	 169.20989022850443	 0.001	 1	 5.791406870113643e-05	 0.0	 0	 0	 0	 0.0576	 160 #atom_id|type|x0|y0|z0|e_flag|rho|m|mx|my|mz|chi|trap_id
161	 1	 109.41987298107783	 199.5207793609598	 0.001	 1	 5.791406870113643e-05	 0.0	 0	 0	 0	 0.0576	 161 #atom_id|type|x0|y0|z0|e_flag|rho|m|mx|my|mz|chi|trap_id
162	 1	 144.41987298107784	 199.5207793609598	 0.001	 1	 5.791406870113643e-05	 0.0	 0	 0	 0	 0.0576	 162 #atom_id|type|x0|y0|z0|e_flag|rho|m|mx|my|mz|chi|trap_id
163	 1	 179.41987298107784	 199.5207793609598	 0.001	 1	 5.791406870113643e-05	 0.0	 0	 0	 0	 0.0576	 163 #atom_id|type|x0|y0|z0|e_flag|rho|m|mx|my|mz|chi|trap_id
164	 1	 214.41987298107784	 199.5207793609598	 0.001	 1	 5.791406870113643e-05	 0.0	 0	 0	 0	 0.0576	 164 #atom_id|type|x0|y0|z0|e_flag|rho|m|mx|my|mz|chi|trap_id
165	 1	 249.41987298107784	 199.5207793609598	 0.001	 1	 5.791406870113643e-05	 0.0	 0	 0	 0	 0.0576	 165 #atom_id|type|x0|y0|z0|e_flag|rho|m|mx|my|mz|chi|trap_id
166	 1	 284.4198729810778	 199.5207793609598	 0.001	 1	 5.791406870113643e-05	 0.0	 0	 0	 0	 0.0576	 166 #atom_id|type|x0|y0|z0|e_flag|rho|m|mx|my|mz|chi|trap_id
167	 1	 319.4198729810778	 199.5207793609598	 0.001	 1	 5.791406870113643e-05	 0.0	 0	 0	 0	 0.0576	 167 #atom_id|type|x0|y0|z0|e_flag|rho|m|mx|my|mz|chi|trap_id
168	 1	 4.419872981077808	 199.5207793609598	 0.001	 1	 5.791406870113643e-05	 0.0	 0	 0	 0	 0.0576	 168 #atom_id|type|x0|y0|z0|e_flag|rho|m|mx|my|mz|chi|trap_id
169	 1	 39.41987298107781	 199.5207793609598	 0.001	 1	 5.791406870113643e-05	 0.0	 0	 0	 0	 0.0576	 169 #atom_id|type|x0|y0|z0|e_flag|rho|m|mx|my|mz|chi|trap_id
170	 1	 74.4198729810778	 199.5207793609598	 0.001	 1	 5.791406870113643e-05	 0.0	 0	 0	 0	 0.0576	 170 #atom_id|type|x0|y0|z0|e_flag|rho|m|mx|my|mz|chi|trap_id
171	 1	 126.91987298107783	 229.83166849341515	 0.001	 1	 5.791406870113643e-05	 0.0	 0	 0	 0	 0.0576	 171 #atom_id|type|x0|y0|z0|e_flag|rho|m|mx|my|mz|chi|trap_id
172	 1	 161.91987298107784	 229.83166849341515	 0.001	 1	 5.791406870113643e-05	 0.0	 0	 0	 0	 0.0576	 172 #atom_id|type|x0|y0|z0|e_flag|rho|m|mx|my|mz|chi|trap_id
173	 1	 196.91987298107784	 229.83166849341515	 0.001	 1	 5.791406870113643e-05	 0.0	 0	 0	 0	 0.0576	 173 #atom_id|type|x0|y0|z0|e_flag|rho|m|mx|my|mz|chi|trap_id
174	 1	 231.91987298107784	 229.83166849341515	 0.001	 1	 5.791406870113643e-05	 0.0	 0	 0	 0	 0.0576	 174 #atom_id|type|x0|y0|z0|e_flag|rho|m|mx|my|mz|chi|trap_id
175	 1	 266.91987298107784	 229.83166849341515	 0.001	 1	 5.791406870113643e-05	 0.0	 0	 0	 0	 0.0576	 175 #atom_id|type|x0|y0|z0|e_flag|rho|m|mx|my|mz|chi|trap_id
176	 1	 301.9198729810778	 229.83166849341515	 0.001	 1	 5.791406870113643e-05	 0.0	 0	 0	 0	 0.0576	 176 #atom_id|type|x0|y0|z0|e_flag|rho|m|mx|my|mz|chi|trap_id
177	 1	 336.9198729810778	 229.83166849341515	 0.001	 1	 5.791406870113643e-05	 0.0	 0	 0	 0	 0.0576	 177 #atom_id|type|x0|y0|z0|e_flag|rho|m|mx|my|mz|chi|trap_id
178	 1	 21.919872981077805	 229.83166849341515	 0.001	 1	 5.791406870113643e-05	 0.0	 0	 0	 0	 0.0576	 178 #atom_id|type|x0|y0|z0|e_flag|rho|m|mx|my|mz|chi|trap_id
179	 1	 56.91987298107781	 229.83166849341515	 0.001	 1	 5.791406870113643e-05	 0.0	 0	 0	 0	 0.0576	 179 #atom_id|type|x0|y0|z0|e_flag|rho|m|mx|my|mz|chi|trap_id
180	 1	 91.9198729810778	 229.83166849341515	 0.001	 1	 5.791406870113643e-05	 0.0	 0	 0	 0	 0.0576	 180 #atom_id|type|x0|y0|z0|e_flag|rho|m|mx|my|mz|chi|trap_id
181	 1	 144.41987298107784	 260.1425576258705	 0.001	 1	 5.791406870113643e-05	 0.0	 0	 0	 0	 0.0576	 181 #atom_id|type|x0|y0|z0|e_flag|rho|m|mx|my|mz|chi|trap_id
182	 1	 179.41987298107784	 260.1425576258705	 0.001	 1	 5.791406870113643e-05	 0.0	 0	 0	 0	 0.0576	 182 #atom_id|type|x0|y0|z0|e_flag|rho|m|mx|my|mz|chi|trap_id
183	 1	 214.41987298107784	 260.1425576258705	 0.001	 1	 5.791406870113643e-05	 0.0	 0	 0	 0	 0.0576	 183 #atom_id|type|x0|y0|z0|e_flag|rho|m|mx|my|mz|chi|trap_id
184	 1	 249.41987298107784	 260.1425576258705	 0.001	 1	 5.791406870113643e-05	 0.0	 0	 0	 0	 0.0576	 184 #atom_id|type|x0|y0|z0|e_flag|rho|m|mx|my|mz|chi|trap_id
185	 1	 284.4198729810778	 260.1425576258705	 0.001	 1	 5.791406870113643e-05	 0.0	 0	 0	 0	 0.0576	 185 #atom_id|type|x0|y0|z0|e_flag|rho|m|mx|my|mz|chi|trap_id
186	 1	 319.4198729810778	 260.1425576258705	 0.001	 1	 5.791406870113643e-05	 0.0	 0	 0	 0	 0.0576	 186 #atom_id|type|x0|y0|z0|e_flag|rho|m|mx|my|mz|chi|trap_id
187	 1	 4.419872981077808	 260.1425576258705	 0.001	 1	 5.791406870113643e-05	 0.0	 0	 0	 0	 0.0576	 187 #atom_id|type|x0|y0|z0|e_flag|rho|m|mx|my|mz|chi|trap_id
188	 1	 39.41987298107781	 260.1425576258705	 0.001	 1	 5.791406870113643e-05	 0.0	 0	 0	 0	 0.0576	 188 #atom_id|type|x0|y0|z0|e_flag|rho|m|mx|my|mz|chi|trap_id
189	 1	 74.4198729810778	 260.1425576258705	 0.001	 1	 5.791406870113643e-05	 0.0	 0	 0	 0	 0.0576	 189 #atom_id|type|x0|y0|z0|e_flag|rho|m|mx|my|mz|chi|trap_id
190	 1	 109.4198729810778	 260.1425576258705	 0.001	 1	 5.791406870113643e-05	 0.0	 0	 0	 0	 0.0576	 190 #atom_id|type|x0|y0|z0|e_flag|rho|m|mx|my|mz|chi|trap_id
191	 1	 161.91987298107784	 290.4534467583258	 0.001	 1	 5.791406870113643e-05	 0.0	 0	 0	 0	 0.0576	 191 #atom_id|type|x0|y0|z0|e_flag|rho|m|mx|my|mz|chi|trap_id