ITEM: TIMESTEP
0
ITEM: NUMBER OF ATOMS
678
ITEM: BOX BOUNDS ss ss pp
-1.7538750000000000e+01 3.5003874999999999e+02
-1.7687755455360129e+01 2.9048575764745829e+02
-2.0000000000000000e-02 2.0000000000000000e-02
ITEM: ATOMS id type x y z 
650 2 -8.75 -15.1554 0 
311 1 -4.41987 -17.6554 0 
325 1 13.0801 -12.6554 0 
664 2 8.75 -15.1554 0 
312 1 30.5801 -17.6554 0 
651 2 26.25 -15.1554 0 
665 2 43.75 -15.1554 0 
326 1 48.0801 -12.6554 0 
313 1 65.5801 -17.6554 0 
652 2 61.25 -15.1554 0 
327 1 83.0801 -12.6554 0 
666 2 78.75 -15.1554 0 
653 2 96.25 -15.1554 0 
314 1 100.58 -17.6554 0 
328 1 118.08 -12.6554 0 
667 2 113.75 -15.1554 0 
315 1 135.58 -17.6554 0 
654 2 131.25 -15.1554 0 
668 2 148.75 -15.1554 0 
329 1 153.08 -12.6554 0 
316 1 170.58 -17.6554 0 
655 2 166.25 -15.1554 0 
330 1 188.08 -12.6554 0 
669 2 183.75 -15.1554 0 
656 2 201.25 -15.1554 0 
317 1 205.58 -17.6554 0 
331 1 223.08 -12.6554 0 
670 2 218.75 -15.1554 0 
318 1 240.58 -17.6554 0 
657 2 236.25 -15.1554 0 
671 2 253.75 -15.1554 0 
332 1 258.08 -12.6554 0 
319 1 275.58 -17.6554 0 
658 2 271.25 -15.1554 0 
333 1 293.08 -12.6554 0 
672 2 288.75 -15.1554 0 
659 2 306.25 -15.1554 0 
320 1 310.58 -17.6554 0 
334 1 328.08 -12.6554 0 
673 2 323.75 -15.1554 0 
301 1 -17.5 -5 0 
640 2 -17.5 2.14313e-15 0 
340 2 17.5 0 0 
341 2 52.5 0 0 
342 2 87.5 0 0 
343 2 122.5 0 0 
344 2 157.5 0 0 
345 2 192.5 0 0 
346 2 227.5 0 0 
347 2 262.5 0 0 
348 2 297.5 0 0 
349 2 332.5 0 0 
201 1 -13.0801 12.6554 0 
1 1 17.5 5 0 
202 1 21.9199 12.6554 0 
2 1 52.5 5 0 
203 1 56.9199 12.6554 0 
3 1 87.5 5 0 
204 1 91.9199 12.6554 0 
4 1 122.5 5 0 
205 1 126.92 12.6554 0 
5 1 157.5 5 0 
206 1 161.92 12.6554 0 
6 1 192.5 5 0 
207 1 196.92 12.6554 0 
7 1 227.5 5 0 
208 1 231.92 12.6554 0 
8 1 262.5 5 0 
209 1 266.92 12.6554 0 
9 1 297.5 5 0 
210 1 301.92 12.6554 0 
10 1 332.5 5 0 
540 2 -8.75 15.1554 0 
101 1 4.41987 17.6554 0 
440 2 8.75 15.1554 0 
541 2 26.25 15.1554 0 
102 1 39.4199 17.6554 0 
441 2 43.75 15.1554 0 
542 2 61.25 15.1554 0 
103 1 74.4199 17.6554 0 
442 2 78.75 15.1554 0 
543 2 96.25 15.1554 0 
104 1 109.42 17.6554 0 
443 2 113.75 15.1554 0 
544 2 131.25 15.1554 0 
105 1 144.42 17.6554 0 
444 2 148.75 15.1554 0 
545 2 166.25 15.1554 0 
106 1 179.42 17.6554 0 
445 2 183.75 15.1554 0 
546 2 201.25 15.1554 0 
107 1 214.42 17.6554 0 
446 2 218.75 15.1554 0 
547 2 236.25 15.1554 0 
108 1 249.42 17.6554 0 
447 2 253.75 15.1554 0 
548 2 271.25 15.1554 0 
109 1 284.42 17.6554 0 
448 2 288.75 15.1554 0 
549 2 306.25 15.1554 0 
110 1 319.42 17.6554 0 
449 2 323.75 15.1554 0 
335 1 345.58 17.6554 0 
674 2 341.25 15.1554 0 
302 1 3.27346e-15 25.3109 0 
641 2 3.88578e-15 30.3109 0 
11 1 35 35.3109 0 
350 2 35 30.3109 0 
12 1 70 35.3109 0 
351 2 70 30.3109 0 
13 1 105 35.3109 0 
352 2 105 30.3109 0 
14 1 140 35.3109 0 
353 2 140 30.3109 0 
15 1 175 35.3109 0 
354 2 175 30.3109 0 
16 1 210 35.3109 0 
355 2 210 30.3109 0 
17 1 245 35.3109 0 
356 2 245 30.3109 0 
18 1 280 35.3109 0 
357 2 280 30.3109 0 
19 1 315 35.3109 0 
358 2 315 30.3109 0 
20 1 350 35.3109 0 
359 2 350 30.3109 0 
660 2 -8.75 45.4663 0 
321 1 -4.41987 42.9663 0 
211 1 4.41987 42.9663 0 
550 2 8.75 45.4663 0 
450 2 26.25 45.4663 0 
212 1 39.4199 42.9663 0 
551 2 43.75 45.4663 0 
451 2 61.25 45.4663 0 
213 1 74.4199 42.9663 0 
552 2 78.75 45.4663 0 
452 2 96.25 45.4663 0 
214 1 109.42 42.9663 0 
553 2 113.75 45.4663 0 
453 2 131.25 45.4663 0 
215 1 144.42 42.9663 0 
554 2 148.75 45.4663 0 
454 2 166.25 45.4663 0 
216 1 179.42 42.9663 0 
555 2 183.75 45.4663 0 
455 2 201.25 45.4663 0 
217 1 214.42 42.9663 0 
556 2 218.75 45.4663 0 
456 2 236.25 45.4663 0 
218 1 249.42 42.9663 0 
557 2 253.75 45.4663 0 
457 2 271.25 45.4663 0 
219 1 284.42 42.9663 0 
558 2 288.75 45.4663 0 
458 2 306.25 45.4663 0 
220 1 319.42 42.9663 0 
559 2 323.75 45.4663 0 
459 2 341.25 45.4663 0 
303 1 -17.5 55.6218 0 
111 1 21.9199 47.9663 0 
112 1 56.9199 47.9663 0 
113 1 91.9199 47.9663 0 
114 1 126.92 47.9663 0 
115 1 161.92 47.9663 0 
116 1 196.92 47.9663 0 
117 1 231.92 47.9663 0 
118 1 266.92 47.9663 0 
119 1 301.92 47.9663 0 
120 1 336.92 47.9663 0 
642 2 -17.5 60.6218 0 
30 1 17.5 65.6218 0 
369 2 17.5 60.6218 0 
21 1 52.5 65.6218 0 
360 2 52.5 60.6218 0 
22 1 87.5 65.6218 0 
361 2 87.5 60.6218 0 
23 1 122.5 65.6218 0 
362 2 122.5 60.6218 0 
24 1 157.5 65.6218 0 
363 2 157.5 60.6218 0 
25 1 192.5 65.6218 0 
364 2 192.5 60.6218 0 
26 1 227.5 65.6218 0 
365 2 227.5 60.6218 0 
27 1 262.5 65.6218 0 
366 2 262.5 60.6218 0 
28 1 297.5 65.6218 0 
367 2 297.5 60.6218 0 
29 1 332.5 65.6218 0 
368 2 332.5 60.6218 0 
230 1 -13.0801 73.2772 0 
569 2 -8.75 75.7772 0 
469 2 8.75 75.7772 0 
221 1 21.9199 73.2772 0 
560 2 26.25 75.7772 0 
460 2 43.75 75.7772 0 
222 1 56.9199 73.2772 0 
561 2 61.25 75.7772 0 
461 2 78.75 75.7772 0 
223 1 91.9199 73.2772 0 
562 2 96.25 75.7772 0 
462 2 113.75 75.7772 0 
224 1 126.92 73.2772 0 
563 2 131.25 75.7772 0 
463 2 148.75 75.7772 0 
225 1 161.92 73.2772 0 
564 2 166.25 75.7772 0 
464 2 183.75 75.7772 0 
226 1 196.92 73.2772 0 
565 2 201.25 75.7772 0 
465 2 218.75 75.7772 0 
227 1 231.92 73.2772 0 
566 2 236.25 75.7772 0 
466 2 253.75 75.7772 0 
228 1 266.92 73.2772 0 
567 2 271.25 75.7772 0 
467 2 288.75 75.7772 0 
229 1 301.92 73.2772 0 
568 2 306.25 75.7772 0 
468 2 323.75 75.7772 0 
675 2 341.25 75.7772 0 
304 1 -6.12323e-16 85.9327 0 
130 1 4.41987 78.2772 0 
121 1 39.4199 78.2772 0 
122 1 74.4199 78.2772 0 
123 1 109.42 78.2772 0 
124 1 144.42 78.2772 0 
125 1 179.42 78.2772 0 
126 1 214.42 78.2772 0 
127 1 249.42 78.2772 0 
128 1 284.42 78.2772 0 
129 1 319.42 78.2772 0 
336 1 345.58 78.2772 0 
643 2 0 90.9327 0 
40 1 35 95.9327 0 
379 2 35 90.9327 0 
31 1 70 95.9327 0 
370 2 70 90.9327 0 
32 1 105 95.9327 0 
371 2 105 90.9327 0 
33 1 140 95.9327 0 
372 2 140 90.9327 0 
34 1 175 95.9327 0 
373 2 175 90.9327 0 
35 1 210 95.9327 0 
374 2 210 90.9327 0 
36 1 245 95.9327 0 
375 2 245 90.9327 0 
37 1 280 95.9327 0 
376 2 280 90.9327 0 
38 1 315 95.9327 0 
377 2 315 90.9327 0 
39 1 350 95.9327 0 
378 2 350 90.9327 0 
661 2 -8.75 106.088 0 
322 1 -4.41987 103.588 0 
240 1 4.41987 103.588 0 
579 2 8.75 106.088 0 
140 1 21.9199 108.588 0 
479 2 26.25 106.088 0 
231 1 39.4199 103.588 0 
570 2 43.75 106.088 0 
131 1 56.9199 108.588 0 
470 2 61.25 106.088 0 
232 1 74.4199 103.588 0 
571 2 78.75 106.088 0 
132 1 91.9199 108.588 0 
471 2 96.25 106.088 0 
233 1 109.42 103.588 0 
572 2 113.75 106.088 0 
133 1 126.92 108.588 0 
472 2 131.25 106.088 0 
234 1 144.42 103.588 0 
573 2 148.75 106.088 0 
134 1 161.92 108.588 0 
473 2 166.25 106.088 0 
235 1 179.42 103.588 0 
574 2 183.75 106.088 0 
135 1 196.92 108.588 0 
474 2 201.25 106.088 0 
236 1 214.42 103.588 0 
575 2 218.75 106.088 0 
136 1 231.92 108.588 0 
475 2 236.25 106.088 0 
237 1 249.42 103.588 0 
576 2 253.75 106.088 0 
137 1 266.92 108.588 0 
476 2 271.25 106.088 0 
238 1 284.42 103.588 0 
577 2 288.75 106.088 0 
138 1 301.92 108.588 0 
477 2 306.25 106.088 0 
239 1 319.42 103.588 0 
578 2 323.75 106.088 0 
139 1 336.92 108.588 0 
478 2 341.25 106.088 0 
305 1 -17.5 116.244 0 
644 2 -17.5 121.244 0 
49 1 17.5 126.244 0 
388 2 17.5 121.244 0 
50 1 52.5 126.244 0 
389 2 52.5 121.244 0 
41 1 87.5 126.244 0 
380 2 87.5 121.244 0 
42 1 122.5 126.244 0 
381 2 122.5 121.244 0 
43 1 157.5 126.244 0 
382 2 157.5 121.244 0 
44 1 192.5 126.244 0 
383 2 192.5 121.244 0 
45 1 227.5 126.244 0 
384 2 227.5 121.244 0 
46 1 262.5 126.244 0 
385 2 262.5 121.244 0 
47 1 297.5 126.244 0 
386 2 297.5 121.244 0 
48 1 332.5 126.244 0 
387 2 332.5 121.244 0 
249 1 -13.0801 133.899 0 
588 2 -8.75 136.399 0 
149 1 4.41987 138.899 0 
488 2 8.75 136.399 0 
250 1 21.9199 133.899 0 
589 2 26.25 136.399 0 
150 1 39.4199 138.899 0 
489 2 43.75 136.399 0 
241 1 56.9199 133.899 0 
580 2 61.25 136.399 0 
141 1 74.4199 138.899 0 
480 2 78.75 136.399 0 
242 1 91.9199 133.899 0 
581 2 96.25 136.399 0 
142 1 109.42 138.899 0 
481 2 113.75 136.399 0 
243 1 126.92 133.899 0 
582 2 131.25 136.399 0 
143 1 144.42 138.899 0 
482 2 148.75 136.399 0 
244 1 161.92 133.899 0 
583 2 166.25 136.399 0 
144 1 179.42 138.899 0 
483 2 183.75 136.399 0 
245 1 196.92 133.899 0 
584 2 201.25 136.399 0 
145 1 214.42 138.899 0 
484 2 218.75 136.399 0 
246 1 231.92 133.899 0 
585 2 236.25 136.399 0 
146 1 249.42 138.899 0 
485 2 253.75 136.399 0 
247 1 266.92 133.899 0 
586 2 271.25 136.399 0 
147 1 284.42 138.899 0 
486 2 288.75 136.399 0 
248 1 301.92 133.899 0 
587 2 306.25 136.399 0 
148 1 319.42 138.899 0 
487 2 323.75 136.399 0 
337 1 345.58 138.899 0 
676 2 341.25 136.399 0 
306 1 -6.12323e-16 146.554 0 
645 2 0 151.554 0 
398 2 35 151.554 0 
399 2 70 151.554 0 
390 2 105 151.554 0 
391 2 140 151.554 0 
392 2 175 151.554 0 
393 2 210 151.554 0 
394 2 245 151.554 0 
395 2 280 151.554 0 
396 2 315 151.554 0 
397 2 350 151.554 0 
59 1 35 156.554 0 
60 1 70 156.554 0 
51 1 105 156.554 0 
52 1 140 156.554 0 
53 1 175 156.554 0 
54 1 210 156.554 0 
55 1 245 156.554 0 
56 1 280 156.554 0 
57 1 315 156.554 0 
58 1 350 156.554 0 
662 2 -8.75 166.71 0 
323 1 -4.41987 164.21 0 
259 1 4.41987 164.21 0 
598 2 8.75 166.71 0 
159 1 21.9199 169.21 0 
498 2 26.25 166.71 0 
260 1 39.4199 164.21 0 
599 2 43.75 166.71 0 
160 1 56.9199 169.21 0 
499 2 61.25 166.71 0 
251 1 74.4199 164.21 0 
590 2 78.75 166.71 0 
151 1 91.9199 169.21 0 
490 2 96.25 166.71 0 
252 1 109.42 164.21 0 
591 2 113.75 166.71 0 
152 1 126.92 169.21 0 
491 2 131.25 166.71 0 
253 1 144.42 164.21 0 
592 2 148.75 166.71 0 
153 1 161.92 169.21 0 
492 2 166.25 166.71 0 
254 1 179.42 164.21 0 
593 2 183.75 166.71 0 
154 1 196.92 169.21 0 
493 2 201.25 166.71 0 
255 1 214.42 164.21 0 
594 2 218.75 166.71 0 
155 1 231.92 169.21 0 
494 2 236.25 166.71 0 
256 1 249.42 164.21 0 
595 2 253.75 166.71 0 
156 1 266.92 169.21 0 
495 2 271.25 166.71 0 
257 1 284.42 164.21 0 
596 2 288.75 166.71 0 
157 1 301.92 169.21 0 
496 2 306.25 166.71 0 
258 1 319.42 164.21 0 
597 2 323.75 166.71 0 
158 1 336.92 169.21 0 
497 2 341.25 166.71 0 
307 1 -17.5 176.865 0 
646 2 -17.5 181.865 0 
407 2 17.5 181.865 0 
408 2 52.5 181.865 0 
409 2 87.5 181.865 0 
400 2 122.5 181.865 0 
401 2 157.5 181.865 0 
402 2 192.5 181.865 0 
403 2 227.5 181.865 0 
404 2 262.5 181.865 0 
405 2 297.5 181.865 0 
406 2 332.5 181.865 0 
268 1 -13.0801 194.521 0 
68 1 17.5 186.865 0 
269 1 21.9199 194.521 0 
69 1 52.5 186.865 0 
270 1 56.9199 194.521 0 
70 1 87.5 186.865 0 
261 1 91.9199 194.521 0 
61 1 122.5 186.865 0 
262 1 126.92 194.521 0 
62 1 157.5 186.865 0 
263 1 161.92 194.521 0 
63 1 192.5 186.865 0 
264 1 196.92 194.521 0 
64 1 227.5 186.865 0 
265 1 231.92 194.521 0 
65 1 262.5 186.865 0 
266 1 266.92 194.521 0 
66 1 297.5 186.865 0 
267 1 301.92 194.521 0 
67 1 332.5 186.865 0 
607 2 -8.75 197.021 0 
168 1 4.41987 199.521 0 
507 2 8.75 197.021 0 
608 2 26.25 197.021 0 
169 1 39.4199 199.521 0 
508 2 43.75 197.021 0 
609 2 61.25 197.021 0 
170 1 74.4199 199.521 0 
509 2 78.75 197.021 0 
600 2 96.25 197.021 0 
161 1 109.42 199.521 0 
500 2 113.75 197.021 0 
601 2 131.25 197.021 0 
162 1 144.42 199.521 0 
501 2 148.75 197.021 0 
602 2 166.25 197.021 0 
163 1 179.42 199.521 0 
502 2 183.75 197.021 0 
603 2 201.25 197.021 0 
164 1 214.42 199.521 0 
503 2 218.75 197.021 0 
604 2 236.25 197.021 0 
165 1 249.42 199.521 0 
504 2 253.75 197.021 0 
605 2 271.25 197.021 0 
166 1 284.42 199.521 0 
505 2 288.75 197.021 0 
606 2 306.25 197.021 0 
167 1 319.42 199.521 0 
506 2 323.75 197.021 0 
338 1 345.58 199.521 0 
677 2 341.25 197.021 0 
308 1 -6.12323e-16 207.176 0 
647 2 0 212.176 0 
417 2 35 212.176 0 
418 2 70 212.176 0 
419 2 105 212.176 0 
410 2 140 212.176 0 
411 2 175 212.176 0 
412 2 210 212.176 0 
413 2 245 212.176 0 
414 2 280 212.176 0 
415 2 315 212.176 0 
416 2 350 212.176 0 
324 1 -4.41987 224.832 0 
278 1 4.41987 224.832 0 
78 1 35 217.176 0 
279 1 39.4199 224.832 0 
79 1 70 217.176 0 
280 1 74.4199 224.832 0 
80 1 105 217.176 0 
271 1 109.42 224.832 0 
71 1 140 217.176 0 
272 1 144.42 224.832 0 
72 1 175 217.176 0 
273 1 179.42 224.832 0 
73 1 210 217.176 0 
274 1 214.42 224.832 0 
74 1 245 217.176 0 
275 1 249.42 224.832 0 
75 1 280 217.176 0 
276 1 284.42 224.832 0 
76 1 315 217.176 0 
277 1 319.42 224.832 0 
77 1 350 217.176 0 
663 2 -8.75 227.332 0 
617 2 8.75 227.332 0 
178 1 21.9199 229.832 0 
517 2 26.25 227.332 0 
618 2 43.75 227.332 0 
179 1 56.9199 229.832 0 
518 2 61.25 227.332 0 
619 2 78.75 227.332 0 
180 1 91.9199 229.832 0 
519 2 96.25 227.332 0 
610 2 113.75 227.332 0 
171 1 126.92 229.832 0 
510 2 131.25 227.332 0 
611 2 148.75 227.332 0 
172 1 161.92 229.832 0 
511 2 166.25 227.332 0 
612 2 183.75 227.332 0 
173 1 196.92 229.832 0 
512 2 201.25 227.332 0 
613 2 218.75 227.332 0 
174 1 231.92 229.832 0 
513 2 236.25 227.332 0 
614 2 253.75 227.332 0 
175 1 266.92 229.832 0 
514 2 271.25 227.332 0 
615 2 288.75 227.332 0 
176 1 301.92 229.832 0 
515 2 306.25 227.332 0 
616 2 323.75 227.332 0 
177 1 336.92 229.832 0 
516 2 341.25 227.332 0 
309 1 -17.5 237.487 0 
648 2 -17.5 242.487 0 
87 1 17.5 247.487 0 
426 2 17.5 242.487 0 
88 1 52.5 247.487 0 
427 2 52.5 242.487 0 
89 1 87.5 247.487 0 
428 2 87.5 242.487 0 
90 1 122.5 247.487 0 
429 2 122.5 242.487 0 
81 1 157.5 247.487 0 
420 2 157.5 242.487 0 
82 1 192.5 247.487 0 
421 2 192.5 242.487 0 
83 1 227.5 247.487 0 
422 2 227.5 242.487 0 
84 1 262.5 247.487 0 
423 2 262.5 242.487 0 
85 1 297.5 247.487 0 
424 2 297.5 242.487 0 
86 1 332.5 247.487 0 
425 2 332.5 242.487 0 
287 1 -13.0801 255.143 0 
626 2 -8.75 257.643 0 
526 2 8.75 257.643 0 
288 1 21.9199 255.143 0 
627 2 26.25 257.643 0 
527 2 43.75 257.643 0 
289 1 56.9199 255.143 0 
628 2 61.25 257.643 0 
528 2 78.75 257.643 0 
290 1 91.9199 255.143 0 
629 2 96.25 257.643 0 
529 2 113.75 257.643 0 
281 1 126.92 255.143 0 
620 2 131.25 257.643 0 
520 2 148.75 257.643 0 
282 1 161.92 255.143 0 
621 2 166.25 257.643 0 
521 2 183.75 257.643 0 
283 1 196.92 255.143 0 
622 2 201.25 257.643 0 
522 2 218.75 257.643 0 
284 1 231.92 255.143 0 
623 2 236.25 257.643 0 
523 2 253.75 257.643 0 
285 1 266.92 255.143 0 
624 2 271.25 257.643 0 
524 2 288.75 257.643 0 
286 1 301.92 255.143 0 
625 2 306.25 257.643 0 
525 2 323.75 257.643 0 
678 2 341.25 257.643 0 
310 1 -6.12323e-16 267.798 0 
187 1 4.41987 260.143 0 
188 1 39.4199 260.143 0 
189 1 74.4199 260.143 0 
190 1 109.42 260.143 0 
181 1 144.42 260.143 0 
182 1 179.42 260.143 0 
183 1 214.42 260.143 0 
184 1 249.42 260.143 0 
185 1 284.42 260.143 0 
186 1 319.42 260.143 0 
339 1 345.58 260.143 0 
649 2 0 272.798 0 
97 1 35 277.798 0 
436 2 35 272.798 0 
98 1 70 277.798 0 
437 2 70 272.798 0 
99 1 105 277.798 0 
438 2 105 272.798 0 
100 1 140 277.798 0 
439 2 140 272.798 0 
91 1 175 277.798 0 
430 2 175 272.798 0 
92 1 210 277.798 0 
431 2 210 272.798 0 
93 1 245 277.798 0 
432 2 245 272.798 0 
94 1 280 277.798 0 
433 2 280 272.798 0 
95 1 315 277.798 0 
434 2 315 272.798 0 
96 1 350 277.798 0 
435 2 350 272.798 0 
297 1 4.41987 285.453 0 
636 2 8.75 287.953 0 
197 1 21.9199 290.453 0 
536 2 26.25 287.953 0 
298 1 39.4199 285.453 0 
637 2 43.75 287.953 0 
198 1 56.9199 290.453 0 
537 2 61.25 287.953 0 
299 1 74.4199 285.453 0 
638 2 78.75 287.953 0 
199 1 91.9199 290.453 0 
538 2 96.25 287.953 0 
300 1 109.42 285.453 0 
639 2 113.75 287.953 0 
200 1 126.92 290.453 0 
539 2 131.25 287.953 0 
291 1 144.42 285.453 0 
630 2 148.75 287.953 0 
191 1 161.92 290.453 0 
530 2 166.25 287.953 0 
292 1 179.42 285.453 0 
631 2 183.75 287.953 0 
192 1 196.92 290.453 0 
531 2 201.25 287.953 0 
293 1 214.42 285.453 0 
632 2 218.75 287.953 0 
193 1 231.92 290.453 0 
532 2 236.25 287.953 0 
294 1 249.42 285.453 0 
633 2 253.75 287.953 0 
194 1 266.92 290.453 0 
533 2 271.25 287.953 0 
295 1 284.42 285.453 0 
634 2 288.75 287.953 0 
195 1 301.92 290.453 0 
534 2 306.25 287.953 0 
296 1 319.42 285.453 0 
635 2 323.75 287.953 0 
196 1 336.92 290.453 0 
535 2 341.25 287.953 0 
ITEM: TIMESTEP
100
ITEM: NUMBER OF ATOMS
678
ITEM: BOX BOUNDS ss ss pp
-1.8158842457483061e+01 3.5065174789970939e+02
-1.7852224780783057e+01 2.9034755937627000e+02
-2.0000000000000000e-02 2.0000000000000000e-02
ITEM: ATOMS id type x y z 
650 2 -8.75 -15.1554 0 
311 1 -4.96946 -17.8223 0 
325 1 11.0178 -14.1956 0 
664 2 8.75 -15.1554 0 
312 1 29.6966 -17.5707 0 
651 2 26.25 -15.1554 0 
665 2 43.75 -15.1554 0 
326 1 45.4763 -14.6265 0 
313 1 64.6138 -17.4495 0 
652 2 61.25 -15.1554 0 
327 1 80.6304 -14.4886 0 
666 2 78.75 -15.1554 0 
653 2 96.25 -15.1554 0 
314 1 99.6652 -17.3666 0 
328 1 115.309 -14.7806 0 
667 2 113.75 -15.1554 0 
315 1 134.54 -17.3294 0 
654 2 131.25 -15.1554 0 
668 2 148.75 -15.1554 0 
329 1 150.599 -14.6109 0 
316 1 170.024 -17.6696 0 
655 2 166.25 -15.1554 0 
330 1 185.844 -14.2863 0 
669 2 183.75 -15.1554 0 
656 2 201.25 -15.1554 0 
317 1 204.619 -17.3423 0 
331 1 220.522 -14.4301 0 
670 2 218.75 -15.1554 0 
318 1 239.68 -17.3724 0 
657 2 236.25 -15.1554 0 
671 2 253.75 -15.1554 0 
332 1 255.46 -14.5588 0 
319 1 274.577 -17.4255 0 
658 2 271.25 -15.1554 0 
333 1 290.603 -14.4936 0 
672 2 288.75 -15.1554 0 
659 2 306.25 -15.1554 0 
320 1 310.278 -17.7363 0 
334 1 328.153 -12.9414 0 
673 2 323.75 -15.1554 0 
301 1 -17.7684 -4.99081 0 
640 2 -17.5 2.14313e-15 0 
340 2 17.5 0 0 
341 2 52.5 0 0 
342 2 87.5 0 0 
343 2 122.5 0 0 
344 2 157.5 0 0 
345 2 192.5 0 0 
346 2 227.5 0 0 
347 2 262.5 0 0 
348 2 297.5 0 0 
349 2 332.5 0 0 
201 1 -12.6755 13.1408 0 
1 1 17.663 -0.11189 0 
202 1 25.5583 14.7554 0 
2 1 52.6749 -0.282681 0 
203 1 60.6776 14.9125 0 
3 1 87.7507 -0.238672 0 
204 1 95.5147 14.6646 0 
4 1 122.686 -0.790053 0 
205 1 130.683 14.7863 0 
5 1 157.434 -0.133222 0 
206 1 165.374 14.8341 0 
6 1 192.836 -0.0723024 0 
207 1 200.5 14.8152 0 
7 1 227.745 -0.248929 0 
208 1 235.656 14.7947 0 
8 1 262.571 -0.417965 0 
209 1 270.409 14.7925 0 
9 1 297.808 -0.703461 0 
210 1 305.493 14.7146 0 
10 1 332.883 2.9894 0 
540 2 -8.75 15.1554 0 
101 1 7.44474 15.5931 0 
440 2 8.75 15.1554 0 
541 2 26.25 15.1554 0 
102 1 42.6891 15.7493 0 
441 2 43.75 15.1554 0 
542 2 61.25 15.1554 0 
103 1 77.5313 15.9137 0 
442 2 78.75 15.1554 0 
543 2 96.25 15.1554 0 
104 1 113.108 15.321 0 
443 2 113.75 15.1554 0 
544 2 131.25 15.1554 0 
105 1 147.776 15.8039 0 
444 2 148.75 15.1554 0 
545 2 166.25 15.1554 0 
106 1 182.59 15.7568 0 
445 2 183.75 15.1554 0 
546 2 201.25 15.1554 0 
107 1 217.808 15.6947 0 
446 2 218.75 15.1554 0 
547 2 236.25 15.1554 0 
108 1 252.868 15.6546 0 
447 2 253.75 15.1554 0 
548 2 271.25 15.1554 0 
109 1 287.694 15.6682 0 
448 2 288.75 15.1554 0 
549 2 306.25 15.1554 0 
110 1 323.318 15.6045 0 
449 2 323.75 15.1554 0 
335 1 345.515 17.5945 0 
674 2 341.25 15.1554 0 
302 1 -0.338432 28.8907 0 
641 2 3.88578e-15 30.3109 0 
11 1 34.7702 30.7828 0 
350 2 35 30.3109 0 
12 1 69.9089 31.2335 0 
351 2 70 30.3109 0 
13 1 104.892 30.8373 0 
352 2 105 30.3109 0 
14 1 139.958 31.099 0 
353 2 140 30.3109 0 
15 1 175.125 31.1099 0 
354 2 175 30.3109 0 
16 1 209.86 30.7376 0 
355 2 210 30.3109 0 
17 1 244.955 30.5165 0 
356 2 245 30.3109 0 
18 1 279.665 30.8402 0 
357 2 280 30.3109 0 
19 1 314.932 30.9452 0 
358 2 315 30.3109 0 
20 1 350.532 34.9812 0 
359 2 350 30.3109 0 
660 2 -8.75 45.4663 0 
321 1 -9.13496 45.4115 0 
211 1 7.96066 44.9701 0 
550 2 8.75 45.4663 0 
450 2 26.25 45.4663 0 
212 1 43.3105 45.2412 0 
551 2 43.75 45.4663 0 
451 2 61.25 45.4663 0 
213 1 78.2867 45.3666 0 
552 2 78.75 45.4663 0 
452 2 96.25 45.4663 0 
214 1 113.177 45.1633 0 
553 2 113.75 45.4663 0 
453 2 131.25 45.4663 0 
215 1 148.653 45.5383 0 
554 2 148.75 45.4663 0 
454 2 166.25 45.4663 0 
216 1 182.927 45.3143 0 
555 2 183.75 45.4663 0 
455 2 201.25 45.4663 0 
217 1 218.11 45.2513 0 
556 2 218.75 45.4663 0 
456 2 236.25 45.4663 0 
218 1 253.185 45.2295 0 
557 2 253.75 45.4663 0 
457 2 271.25 45.4663 0 
219 1 288.392 45.278 0 
558 2 288.75 45.4663 0 
458 2 306.25 45.4663 0 
220 1 323.407 45.564 0 
559 2 323.75 45.4663 0 
459 2 341.25 45.4663 0 
303 1 -18.075 57.5254 0 
111 1 25.4492 46.0291 0 
112 1 60.2289 46.0041 0 
113 1 95.3069 45.9157 0 
114 1 129.958 46.2328 0 
115 1 164.938 46.2004 0 
116 1 199.983 46.1268 0 
117 1 235.487 46.0249 0 
118 1 270.195 46.2235 0 
119 1 305.27 46.1753 0 
120 1 340.033 46.3858 0 
642 2 -17.5 60.6218 0 
30 1 17.4182 61.6596 0 
369 2 17.5 60.6218 0 
21 1 52.5576 61.0758 0 
360 2 52.5 60.6218 0 
22 1 87.5298 61.4327 0 
361 2 87.5 60.6218 0 
23 1 122.664 61.2762 0 
362 2 122.5 60.6218 0 
24 1 157.47 61.5022 0 
363 2 157.5 60.6218 0 
25 1 192.353 60.9651 0 
364 2 192.5 60.6218 0 
26 1 227.482 60.682 0 
365 2 227.5 60.6218 0 
27 1 262.284 61.2434 0 
366 2 262.5 60.6218 0 
28 1 297.316 61.5813 0 
367 2 297.5 60.6218 0 
29 1 332.692 62.9248 0 
368 2 332.5 60.6218 0 
230 1 -12.506 73.8766 0 
569 2 -8.75 75.7772 0 
469 2 8.75 75.7772 0 
221 1 25.8031 75.4276 0 
560 2 26.25 75.7772 0 
460 2 43.75 75.7772 0 
222 1 60.5639 75.4578 0 
561 2 61.25 75.7772 0 
461 2 78.75 75.7772 0 
223 1 95.638 75.553 0 
562 2 96.25 75.7772 0 
462 2 113.75 75.7772 0 
224 1 130.85 75.4738 0 
563 2 131.25 75.7772 0 
463 2 148.75 75.7772 0 
225 1 165.76 75.6103 0 
564 2 166.25 75.7772 0 
464 2 183.75 75.7772 0 
226 1 200.632 75.2879 0 
565 2 201.25 75.7772 0 
465 2 218.75 75.7772 0 
227 1 235.43 75.508 0 
566 2 236.25 75.7772 0 
466 2 253.75 75.7772 0 
228 1 270.756 75.6838 0 
567 2 271.25 75.7772 0 
467 2 288.75 75.7772 0 
229 1 306.199 75.7937 0 
568 2 306.25 75.7772 0 
468 2 323.75 75.7772 0 
675 2 341.25 75.7772 0 
304 1 -0.288204 89.7171 0 
130 1 7.16938 76.5763 0 
121 1 42.7426 76.2962 0 
122 1 77.7753 76.3506 0 
123 1 112.795 76.2813 0 
124 1 147.488 76.668 0 
125 1 182.788 76.2365 0 
126 1 217.679 76.3334 0 
127 1 252.512 76.4279 0 
128 1 287.69 76.4968 0 
129 1 323.539 76.0009 0 
336 1 345.634 78.0297 0 
643 2 0 90.9327 0 
40 1 34.8203 91.3581 0 
379 2 35 90.9327 0 
31 1 69.8492 91.2653 0 
370 2 70 90.9327 0 
32 1 104.966 91.7001 0 
371 2 105 90.9327 0 
33 1 139.928 91.6392 0 
372 2 140 90.9327 0 
34 1 174.939 91.3426 0 
373 2 175 90.9327 0 
35 1 209.908 91.7432 0 
374 2 210 90.9327 0 
36 1 244.871 91.447 0 
375 2 245 90.9327 0 
37 1 279.879 91.6031 0 
376 2 280 90.9327 0 
38 1 314.975 91.9603 0 
377 2 315 90.9327 0 
39 1 350.364 95.5692 0 
378 2 350 90.9327 0 
661 2 -8.75 106.088 0 
322 1 -9.22761 106.159 0 
240 1 7.56399 105.447 0 
579 2 8.75 106.088 0 
140 1 25.2326 106.468 0 
479 2 26.25 106.088 0 
231 1 42.8819 105.78 0 
570 2 43.75 106.088 0 
131 1 59.9594 106.843 0 
470 2 61.25 106.088 0 
232 1 77.7971 105.58 0 
571 2 78.75 106.088 0 
132 1 95.1133 106.742 0 
471 2 96.25 106.088 0 
233 1 113.245 105.926 0 
572 2 113.75 106.088 0 
133 1 130.04 106.837 0 
472 2 131.25 106.088 0 
234 1 147.955 105.513 0 
573 2 148.75 106.088 0 
134 1 165.275 106.721 0 
473 2 166.25 106.088 0 
235 1 183.097 105.754 0 
574 2 183.75 106.088 0 
135 1 200.328 106.621 0 
474 2 201.25 106.088 0 
236 1 218.295 105.827 0 
575 2 218.75 106.088 0 
136 1 235.261 106.836 0 
475 2 236.25 106.088 0 
237 1 253.405 106.05 0 
576 2 253.75 106.088 0 
137 1 270.184 106.753 0 
476 2 271.25 106.088 0 
238 1 288.264 106.102 0 
577 2 288.75 106.088 0 
138 1 305.31 106.711 0 
477 2 306.25 106.088 0 
239 1 323.885 106.422 0 
578 2 323.75 106.088 0 
139 1 340.039 107.094 0 
478 2 341.25 106.088 0 
305 1 -17.9849 118.47 0 
644 2 -17.5 121.244 0 
49 1 17.4963 121.71 0 
388 2 17.5 121.244 0 
50 1 52.388 121.668 0 
389 2 52.5 121.244 0 
41 1 87.3271 121.783 0 
380 2 87.5 121.244 0 
42 1 122.446 121.98 0 
381 2 122.5 121.244 0 
43 1 157.276 121.923 0 
382 2 157.5 121.244 0 
44 1 192.533 121.808 0 
383 2 192.5 121.244 0 
45 1 227.401 122.126 0 
384 2 227.5 121.244 0 
46 1 262.339 121.508 0 
385 2 262.5 121.244 0 
47 1 297.557 122.168 0 
386 2 297.5 121.244 0 
48 1 332.646 123.998 0 
387 2 332.5 121.244 0 
249 1 -12.5007 134.464 0 
588 2 -8.75 136.399 0 
149 1 7.378 137.015 0 
488 2 8.75 136.399 0 
250 1 25.7329 136.127 0 
589 2 26.25 136.399 0 
150 1 42.9932 136.806 0 
489 2 43.75 136.399 0 
241 1 60.7536 136.3 0 
580 2 61.25 136.399 0 
141 1 77.5607 137.056 0 
480 2 78.75 136.399 0 
242 1 95.7803 136.25 0 
581 2 96.25 136.399 0 
142 1 112.792 136.931 0 
481 2 113.75 136.399 0 
243 1 130.551 136.048 0 
582 2 131.25 136.399 0 
143 1 147.721 136.937 0 
482 2 148.75 136.399 0 
244 1 165.895 136.353 0 
583 2 166.25 136.399 0 
144 1 182.837 136.999 0 
483 2 183.75 136.399 0 
245 1 200.736 136.147 0 
584 2 201.25 136.399 0 
145 1 217.827 136.788 0 
484 2 218.75 136.399 0 
246 1 235.631 136.176 0 
585 2 236.25 136.399 0 
146 1 252.74 136.957 0 
485 2 253.75 136.399 0 
247 1 270.663 136.215 0 
586 2 271.25 136.399 0 
147 1 287.913 136.993 0 
486 2 288.75 136.399 0 
248 1 305.947 136.298 0 
587 2 306.25 136.399 0 
148 1 323.433 136.925 0 
487 2 323.75 136.399 0 
337 1 345.445 138.693 0 
676 2 341.25 136.399 0 
306 1 -0.245789 150.294 0 
645 2 0 151.554 0 
398 2 35 151.554 0 
399 2 70 151.554 0 
390 2 105 151.554 0 
391 2 140 151.554 0 
392 2 175 151.554 0 
393 2 210 151.554 0 
394 2 245 151.554 0 
395 2 280 151.554 0 
396 2 315 151.554 0 
397 2 350 151.554 0 
59 1 34.903 152.122 0 
60 1 70.1108 152.409 0 
51 1 104.943 151.977 0 
52 1 139.763 152.107 0 
53 1 174.821 151.871 0 
54 1 210.066 151.935 0 
55 1 244.919 152.714 0 
56 1 280.015 152.559 0 
57 1 314.79 152.361 0 
58 1 350.739 156.086 0 
662 2 -8.75 166.71 0 
323 1 -8.72375 166.42 0 
259 1 8.11651 166.28 0 
598 2 8.75 166.71 0 
159 1 25.0849 167.367 0 
498 2 26.25 166.71 0 
260 1 43.0878 166.668 0 
599 2 43.75 166.71 0 
160 1 60.2163 167.399 0 
499 2 61.25 166.71 0 
251 1 77.9732 166.439 0 
590 2 78.75 166.71 0 
151 1 95.1447 167.422 0 
490 2 96.25 166.71 0 
252 1 113.09 166.398 0 
591 2 113.75 166.71 0 
152 1 130.07 167.317 0 
491 2 131.25 166.71 0 
253 1 148.016 166.37 0 
592 2 148.75 166.71 0 
153 1 165.212 167.457 0 
492 2 166.25 166.71 0 
254 1 183.291 166.588 0 
593 2 183.75 166.71 0 
154 1 200.332 167.343 0 
493 2 201.25 166.71 0 
255 1 217.97 166.375 0 
594 2 218.75 166.71 0 
155 1 234.765 167.71 0 
494 2 236.25 166.71 0 
256 1 253.249 166.543 0 
595 2 253.75 166.71 0 
156 1 270.084 167.415 0 
495 2 271.25 166.71 0 
257 1 288.535 166.645 0 
596 2 288.75 166.71 0 
157 1 305.321 167.205 0 
496 2 306.25 166.71 0 
258 1 323.799 167.118 0 
597 2 323.75 166.71 0 
158 1 340.01 167.622 0 
497 2 341.25 166.71 0 
307 1 -17.9942 178.799 0 
646 2 -17.5 181.865 0 
407 2 17.5 181.865 0 
408 2 52.5 181.865 0 
409 2 87.5 181.865 0 
400 2 122.5 181.865 0 
401 2 157.5 181.865 0 
402 2 192.5 181.865 0 
403 2 227.5 181.865 0 
404 2 262.5 181.865 0 
405 2 297.5 181.865 0 
406 2 332.5 181.865 0 
268 1 -12.4546 195.219 0 
68 1 17.3891 182.252 0 
269 1 25.7373 196.858 0 
69 1 52.3241 182.668 0 
270 1 60.7544 196.908 0 
70 1 87.356 182.549 0 
261 1 95.7814 196.835 0 
61 1 122.531 182.422 0 
262 1 131.032 197.026 0 
62 1 157.47 182.657 0 
263 1 165.436 196.794 0 
63 1 192.347 182.532 0 
264 1 200.483 196.715 0 
64 1 227.365 182.744 0 
265 1 235.761 196.886 0 
65 1 262.407 182.756 0 
266 1 271.11 197.109 0 
66 1 297.514 182.33 0 
267 1 305.805 196.834 0 
67 1 332.723 184.119 0 
607 2 -8.75 197.021 0 
168 1 7.51911 197.41 0 
507 2 8.75 197.021 0 
608 2 26.25 197.021 0 
169 1 42.7375 197.709 0 
508 2 43.75 197.021 0 
609 2 61.25 197.021 0 
170 1 77.909 197.46 0 
509 2 78.75 197.021 0 
600 2 96.25 197.021 0 
161 1 112.674 197.657 0 
500 2 113.75 197.021 0 
601 2 131.25 197.021 0 
162 1 147.643 197.788 0 
501 2 148.75 197.021 0 
602 2 166.25 197.021 0 
163 1 182.216 198.05 0 
502 2 183.75 197.021 0 
603 2 201.25 197.021 0 
164 1 217.648 197.733 0 
503 2 218.75 197.021 0 
604 2 236.25 197.021 0 
165 1 252.33 197.871 0 
504 2 253.75 197.021 0 
605 2 271.25 197.021 0 
166 1 287.651 197.581 0 
505 2 288.75 197.021 0 
606 2 306.25 197.021 0 
167 1 323.712 197.458 0 
506 2 323.75 197.021 0 
338 1 345.476 199.331 0 
677 2 341.25 197.021 0 
308 1 -0.219993 210.947 0 
647 2 0 212.176 0 
417 2 35 212.176 0 
418 2 70 212.176 0 
419 2 105 212.176 0 
410 2 140 212.176 0 
411 2 175 212.176 0 
412 2 210 212.176 0 
413 2 245 212.176 0 
414 2 280 212.176 0 
415 2 315 212.176 0 
416 2 350 212.176 0 
324 1 -8.93508 227.085 0 
278 1 8.08881 226.802 0 
78 1 34.8853 213.277 0 
279 1 43.2178 227.298 0 
79 1 70.0548 212.635 0 
280 1 78.1092 227.131 0 
80 1 104.954 212.825 0 
271 1 113.087 227.204 0 
71 1 139.915 212.51 0 
272 1 148.105 227.144 0 
72 1 174.775 213.039 0 
273 1 183.03 227.106 0 
73 1 209.851 212.679 0 
274 1 218.18 227.256 0 
74 1 244.676 212.779 0 
275 1 252.856 226.794 0 
75 1 279.887 212.999 0 
276 1 288.064 227.086 0 
76 1 314.881 213.115 0 
277 1 323.738 227.526 0 
77 1 350.464 216.795 0 
663 2 -8.75 227.332 0 
617 2 8.75 227.332 0 
178 1 25.2049 227.908 0 
517 2 26.25 227.332 0 
618 2 43.75 227.332 0 
179 1 59.7753 228.145 0 
518 2 61.25 227.332 0 
619 2 78.75 227.332 0 
180 1 94.9727 227.946 0 
519 2 96.25 227.332 0 
610 2 113.75 227.332 0 
171 1 130.025 228.065 0 
510 2 131.25 227.332 0 
611 2 148.75 227.332 0 
172 1 165.05 228.094 0 
511 2 166.25 227.332 0 
612 2 183.75 227.332 0 
173 1 199.957 228.176 0 
512 2 201.25 227.332 0 
613 2 218.75 227.332 0 
174 1 235.182 228.07 0 
513 2 236.25 227.332 0 
614 2 253.75 227.332 0 
175 1 270.076 227.831 0 
514 2 271.25 227.332 0 
615 2 288.75 227.332 0 
176 1 305.077 228.011 0 
515 2 306.25 227.332 0 
616 2 323.75 227.332 0 
177 1 340.054 228.305 0 
516 2 341.25 227.332 0 
309 1 -17.9241 239.591 0 
648 2 -17.5 242.487 0 
87 1 17.3361 243.03 0 
426 2 17.5 242.487 0 
88 1 52.4438 243.361 0 
427 2 52.5 242.487 0 
89 1 87.2935 243.44 0 
428 2 87.5 242.487 0 
90 1 122.286 243.48 0 
429 2 122.5 242.487 0 
81 1 157.403 243.34 0 
420 2 157.5 242.487 0 
82 1 192.316 243.365 0 
421 2 192.5 242.487 0 
83 1 227.52 243.297 0 
422 2 227.5 242.487 0 
84 1 262.445 243.133 0 
423 2 262.5 242.487 0 
85 1 297.52 243.499 0 
424 2 297.5 242.487 0 
86 1 332.584 245.318 0 
425 2 332.5 242.487 0 
287 1 -12.4579 255.874 0 
626 2 -8.75 257.643 0 
526 2 8.75 257.643 0 
288 1 25.7361 257.375 0 
627 2 26.25 257.643 0 
527 2 43.75 257.643 0 
289 1 60.7151 257.541 0 
628 2 61.25 257.643 0 
528 2 78.75 257.643 0 
290 1 95.278 257.318 0 
629 2 96.25 257.643 0 
529 2 113.75 257.643 0 
281 1 130.605 257.41 0 