ITEM: TIMESTEP
0
ITEM: NUMBER OF ATOMS
678
ITEM: BOX BOUNDS ss ss pp
-1.7538750000000000e+01 3.5003874999999999e+02
-1.7687755455360129e+01 2.9048575764745829e+02
-2.0000000000000000e-02 2.0000000000000000e-02
ITEM: ATOMS id type x y z 
650 2 -8.75 -15.1554 0 
311 1 -4.41987 -17.6554 0 
325 1 13.0801 -12.6554 0 
664 2 8.75 -15.1554 0 
312 1 30.5801 -17.6554 0 
651 2 26.25 -15.1554 0 
326 1 48.0801 -12.6554 0 
665 2 43.75 -15.1554 0 
313 1 65.5801 -17.6554 0 
652 2 61.25 -15.1554 0 
666 2 78.75 -15.1554 0 
327 1 83.0801 -12.6554 0 
314 1 100.58 -17.6554 0 
653 2 96.25 -15.1554 0 
667 2 113.75 -15.1554 0 
328 1 118.08 -12.6554 0 
315 1 135.58 -17.6554 0 
654 2 131.25 -15.1554 0 
329 1 153.08 -12.6554 0 
668 2 148.75 -15.1554 0 
655 2 166.25 -15.1554 0 
316 1 170.58 -17.6554 0 
330 1 188.08 -12.6554 0 
669 2 183.75 -15.1554 0 
656 2 201.25 -15.1554 0 
317 1 205.58 -17.6554 0 
331 1 223.08 -12.6554 0 
670 2 218.75 -15.1554 0 
657 2 236.25 -15.1554 0 
318 1 240.58 -17.6554 0 
332 1 258.08 -12.6554 0 
671 2 253.75 -15.1554 0 
319 1 275.58 -17.6554 0 
658 2 271.25 -15.1554 0 
672 2 288.75 -15.1554 0 
333 1 293.08 -12.6554 0 
320 1 310.58 -17.6554 0 
659 2 306.25 -15.1554 0 
673 2 323.75 -15.1554 0 
334 1 328.08 -12.6554 0 
301 1 -17.5 -5 0 
640 2 -17.5 2.14313e-15 0 
1 1 17.5 5 0 
340 2 17.5 0 0 
2 1 52.5 5 0 
341 2 52.5 0 0 
3 1 87.5 5 0 
342 2 87.5 0 0 
4 1 122.5 5 0 
343 2 122.5 0 0 
5 1 157.5 5 0 
344 2 157.5 0 0 
6 1 192.5 5 0 
345 2 192.5 0 0 
7 1 227.5 5 0 
346 2 227.5 0 0 
8 1 262.5 5 0 
347 2 262.5 0 0 
9 1 297.5 5 0 
348 2 297.5 0 0 
10 1 332.5 5 0 
349 2 332.5 0 0 
201 1 -13.0801 12.6554 0 
540 2 -8.75 15.1554 0 
101 1 4.41987 17.6554 0 
440 2 8.75 15.1554 0 
202 1 21.9199 12.6554 0 
541 2 26.25 15.1554 0 
102 1 39.4199 17.6554 0 
441 2 43.75 15.1554 0 
203 1 56.9199 12.6554 0 
542 2 61.25 15.1554 0 
103 1 74.4199 17.6554 0 
442 2 78.75 15.1554 0 
204 1 91.9199 12.6554 0 
543 2 96.25 15.1554 0 
104 1 109.42 17.6554 0 
443 2 113.75 15.1554 0 
205 1 126.92 12.6554 0 
544 2 131.25 15.1554 0 
105 1 144.42 17.6554 0 
444 2 148.75 15.1554 0 
206 1 161.92 12.6554 0 
545 2 166.25 15.1554 0 
106 1 179.42 17.6554 0 
445 2 183.75 15.1554 0 
207 1 196.92 12.6554 0 
546 2 201.25 15.1554 0 
107 1 214.42 17.6554 0 
446 2 218.75 15.1554 0 
208 1 231.92 12.6554 0 
547 2 236.25 15.1554 0 
108 1 249.42 17.6554 0 
447 2 253.75 15.1554 0 
209 1 266.92 12.6554 0 
548 2 271.25 15.1554 0 
109 1 284.42 17.6554 0 
448 2 288.75 15.1554 0 
210 1 301.92 12.6554 0 
549 2 306.25 15.1554 0 
110 1 319.42 17.6554 0 
449 2 323.75 15.1554 0 
335 1 345.58 17.6554 0 
674 2 341.25 15.1554 0 
302 1 3.27346e-15 25.3109 0 
641 2 3.88578e-15 30.3109 0 
350 2 35 30.3109 0 
351 2 70 30.3109 0 
352 2 105 30.3109 0 
353 2 140 30.3109 0 
354 2 175 30.3109 0 
355 2 210 30.3109 0 
356 2 245 30.3109 0 
357 2 280 30.3109 0 
358 2 315 30.3109 0 
359 2 350 30.3109 0 
211 1 4.41987 42.9663 0 
321 1 -4.41987 42.9663 0 
11 1 35 35.3109 0 
212 1 39.4199 42.9663 0 
12 1 70 35.3109 0 
213 1 74.4199 42.9663 0 
13 1 105 35.3109 0 
214 1 109.42 42.9663 0 
14 1 140 35.3109 0 
215 1 144.42 42.9663 0 
15 1 175 35.3109 0 
216 1 179.42 42.9663 0 
16 1 210 35.3109 0 
217 1 214.42 42.9663 0 
17 1 245 35.3109 0 
218 1 249.42 42.9663 0 
18 1 280 35.3109 0 
219 1 284.42 42.9663 0 
19 1 315 35.3109 0 
220 1 319.42 42.9663 0 
20 1 350 35.3109 0 
303 1 -17.5 55.6218 0 
660 2 -8.75 45.4663 0 
550 2 8.75 45.4663 0 
111 1 21.9199 47.9663 0 
450 2 26.25 45.4663 0 
551 2 43.75 45.4663 0 
112 1 56.9199 47.9663 0 
451 2 61.25 45.4663 0 
552 2 78.75 45.4663 0 
113 1 91.9199 47.9663 0 
452 2 96.25 45.4663 0 
553 2 113.75 45.4663 0 
114 1 126.92 47.9663 0 
453 2 131.25 45.4663 0 
554 2 148.75 45.4663 0 
115 1 161.92 47.9663 0 
454 2 166.25 45.4663 0 
555 2 183.75 45.4663 0 
116 1 196.92 47.9663 0 
455 2 201.25 45.4663 0 
556 2 218.75 45.4663 0 
117 1 231.92 47.9663 0 
456 2 236.25 45.4663 0 
557 2 253.75 45.4663 0 
118 1 266.92 47.9663 0 
457 2 271.25 45.4663 0 
558 2 288.75 45.4663 0 
119 1 301.92 47.9663 0 
458 2 306.25 45.4663 0 
559 2 323.75 45.4663 0 
120 1 336.92 47.9663 0 
459 2 341.25 45.4663 0 
642 2 -17.5 60.6218 0 
30 1 17.5 65.6218 0 
369 2 17.5 60.6218 0 
21 1 52.5 65.6218 0 
360 2 52.5 60.6218 0 
22 1 87.5 65.6218 0 
361 2 87.5 60.6218 0 
23 1 122.5 65.6218 0 
362 2 122.5 60.6218 0 
24 1 157.5 65.6218 0 
363 2 157.5 60.6218 0 
25 1 192.5 65.6218 0 
364 2 192.5 60.6218 0 
26 1 227.5 65.6218 0 
365 2 227.5 60.6218 0 
27 1 262.5 65.6218 0 
366 2 262.5 60.6218 0 
28 1 297.5 65.6218 0 
367 2 297.5 60.6218 0 
29 1 332.5 65.6218 0 
368 2 332.5 60.6218 0 
230 1 -13.0801 73.2772 0 
569 2 -8.75 75.7772 0 
130 1 4.41987 78.2772 0 
469 2 8.75 75.7772 0 
221 1 21.9199 73.2772 0 
560 2 26.25 75.7772 0 
121 1 39.4199 78.2772 0 
460 2 43.75 75.7772 0 
222 1 56.9199 73.2772 0 
561 2 61.25 75.7772 0 
122 1 74.4199 78.2772 0 
461 2 78.75 75.7772 0 
223 1 91.9199 73.2772 0 
562 2 96.25 75.7772 0 
123 1 109.42 78.2772 0 
462 2 113.75 75.7772 0 
224 1 126.92 73.2772 0 
563 2 131.25 75.7772 0 
124 1 144.42 78.2772 0 
463 2 148.75 75.7772 0 
225 1 161.92 73.2772 0 
564 2 166.25 75.7772 0 
125 1 179.42 78.2772 0 
464 2 183.75 75.7772 0 
226 1 196.92 73.2772 0 
565 2 201.25 75.7772 0 
126 1 214.42 78.2772 0 
465 2 218.75 75.7772 0 
227 1 231.92 73.2772 0 
566 2 236.25 75.7772 0 
127 1 249.42 78.2772 0 
466 2 253.75 75.7772 0 
228 1 266.92 73.2772 0 
567 2 271.25 75.7772 0 
128 1 284.42 78.2772 0 
467 2 288.75 75.7772 0 
229 1 301.92 73.2772 0 
568 2 306.25 75.7772 0 
129 1 319.42 78.2772 0 
468 2 323.75 75.7772 0 
336 1 345.58 78.2772 0 
675 2 341.25 75.7772 0 
304 1 -6.12323e-16 85.9327 0 
643 2 0 90.9327 0 
379 2 35 90.9327 0 
370 2 70 90.9327 0 
371 2 105 90.9327 0 
372 2 140 90.9327 0 
373 2 175 90.9327 0 
374 2 210 90.9327 0 
375 2 245 90.9327 0 
376 2 280 90.9327 0 
377 2 315 90.9327 0 
378 2 350 90.9327 0 
240 1 4.41987 103.588 0 
322 1 -4.41987 103.588 0 
40 1 35 95.9327 0 
231 1 39.4199 103.588 0 
31 1 70 95.9327 0 
232 1 74.4199 103.588 0 
32 1 105 95.9327 0 
233 1 109.42 103.588 0 
33 1 140 95.9327 0 
234 1 144.42 103.588 0 
34 1 175 95.9327 0 
235 1 179.42 103.588 0 
35 1 210 95.9327 0 
236 1 214.42 103.588 0 
36 1 245 95.9327 0 
237 1 249.42 103.588 0 
37 1 280 95.9327 0 
238 1 284.42 103.588 0 
38 1 315 95.9327 0 
239 1 319.42 103.588 0 
39 1 350 95.9327 0 
305 1 -17.5 116.244 0 
661 2 -8.75 106.088 0 
579 2 8.75 106.088 0 
140 1 21.9199 108.588 0 
479 2 26.25 106.088 0 
570 2 43.75 106.088 0 
131 1 56.9199 108.588 0 
470 2 61.25 106.088 0 
571 2 78.75 106.088 0 
132 1 91.9199 108.588 0 
471 2 96.25 106.088 0 
572 2 113.75 106.088 0 
133 1 126.92 108.588 0 
472 2 131.25 106.088 0 
573 2 148.75 106.088 0 
134 1 161.92 108.588 0 
473 2 166.25 106.088 0 
574 2 183.75 106.088 0 
135 1 196.92 108.588 0 
474 2 201.25 106.088 0 
575 2 218.75 106.088 0 
136 1 231.92 108.588 0 
475 2 236.25 106.088 0 
576 2 253.75 106.088 0 
137 1 266.92 108.588 0 
476 2 271.25 106.088 0 
577 2 288.75 106.088 0 
138 1 301.92 108.588 0 
477 2 306.25 106.088 0 
578 2 323.75 106.088 0 
139 1 336.92 108.588 0 
478 2 341.25 106.088 0 
644 2 -17.5 121.244 0 
49 1 17.5 126.244 0 
388 2 17.5 121.244 0 
50 1 52.5 126.244 0 
389 2 52.5 121.244 0 
41 1 87.5 126.244 0 
380 2 87.5 121.244 0 
42 1 122.5 126.244 0 
381 2 122.5 121.244 0 
43 1 157.5 126.244 0 
382 2 157.5 121.244 0 
44 1 192.5 126.244 0 
383 2 192.5 121.244 0 
45 1 227.5 126.244 0 
384 2 227.5 121.244 0 
46 1 262.5 126.244 0 
385 2 262.5 121.244 0 
47 1 297.5 126.244 0 
386 2 297.5 121.244 0 
48 1 332.5 126.244 0 
387 2 332.5 121.244 0 
249 1 -13.0801 133.899 0 
588 2 -8.75 136.399 0 
149 1 4.41987 138.899 0 
488 2 8.75 136.399 0 
250 1 21.9199 133.899 0 
589 2 26.25 136.399 0 
150 1 39.4199 138.899 0 
489 2 43.75 136.399 0 
241 1 56.9199 133.899 0 
580 2 61.25 136.399 0 
141 1 74.4199 138.899 0 
480 2 78.75 136.399 0 
242 1 91.9199 133.899 0 
581 2 96.25 136.399 0 
142 1 109.42 138.899 0 
481 2 113.75 136.399 0 
243 1 126.92 133.899 0 
582 2 131.25 136.399 0 
143 1 144.42 138.899 0 
482 2 148.75 136.399 0 
244 1 161.92 133.899 0 
583 2 166.25 136.399 0 
144 1 179.42 138.899 0 
483 2 183.75 136.399 0 
245 1 196.92 133.899 0 
584 2 201.25 136.399 0 
145 1 214.42 138.899 0 
484 2 218.75 136.399 0 
246 1 231.92 133.899 0 
585 2 236.25 136.399 0 
146 1 249.42 138.899 0 
485 2 253.75 136.399 0 
247 1 266.92 133.899 0 
586 2 271.25 136.399 0 
147 1 284.42 138.899 0 
486 2 288.75 136.399 0 
248 1 301.92 133.899 0 
587 2 306.25 136.399 0 
148 1 319.42 138.899 0 
487 2 323.75 136.399 0 
337 1 345.58 138.899 0 
676 2 341.25 136.399 0 
306 1 -6.12323e-16 146.554 0 
645 2 0 151.554 0 
398 2 35 151.554 0 
399 2 70 151.554 0 
390 2 105 151.554 0 
391 2 140 151.554 0 
392 2 175 151.554 0 
393 2 210 151.554 0 
394 2 245 151.554 0 
395 2 280 151.554 0 
396 2 315 151.554 0 
397 2 350 151.554 0 
662 2 -8.75 166.71 0 
259 1 4.41987 164.21 0 
323 1 -4.41987 164.21 0 
598 2 8.75 166.71 0 
498 2 26.25 166.71 0 
59 1 35 156.554 0 
260 1 39.4199 164.21 0 
599 2 43.75 166.71 0 
499 2 61.25 166.71 0 
60 1 70 156.554 0 
251 1 74.4199 164.21 0 
590 2 78.75 166.71 0 
490 2 96.25 166.71 0 
51 1 105 156.554 0 
252 1 109.42 164.21 0 
591 2 113.75 166.71 0 
52 1 140 156.554 0 
491 2 131.25 166.71 0 
253 1 144.42 164.21 0 
592 2 148.75 166.71 0 
492 2 166.25 166.71 0 
53 1 175 156.554 0 
254 1 179.42 164.21 0 
593 2 183.75 166.71 0 
493 2 201.25 166.71 0 
54 1 210 156.554 0 
255 1 214.42 164.21 0 
594 2 218.75 166.71 0 
494 2 236.25 166.71 0 
55 1 245 156.554 0 
256 1 249.42 164.21 0 
595 2 253.75 166.71 0 
495 2 271.25 166.71 0 
56 1 280 156.554 0 
257 1 284.42 164.21 0 
596 2 288.75 166.71 0 
496 2 306.25 166.71 0 
57 1 315 156.554 0 
258 1 319.42 164.21 0 
597 2 323.75 166.71 0 
58 1 350 156.554 0 
497 2 341.25 166.71 0 
307 1 -17.5 176.865 0 
159 1 21.9199 169.21 0 
160 1 56.9199 169.21 0 
151 1 91.9199 169.21 0 
152 1 126.92 169.21 0 
153 1 161.92 169.21 0 
154 1 196.92 169.21 0 
155 1 231.92 169.21 0 
156 1 266.92 169.21 0 
157 1 301.92 169.21 0 
158 1 336.92 169.21 0 
646 2 -17.5 181.865 0 
68 1 17.5 186.865 0 
407 2 17.5 181.865 0 
69 1 52.5 186.865 0 
408 2 52.5 181.865 0 
70 1 87.5 186.865 0 
409 2 87.5 181.865 0 
61 1 122.5 186.865 0 
400 2 122.5 181.865 0 
62 1 157.5 186.865 0 
401 2 157.5 181.865 0 
63 1 192.5 186.865 0 
402 2 192.5 181.865 0 
64 1 227.5 186.865 0 
403 2 227.5 181.865 0 
65 1 262.5 186.865 0 
404 2 262.5 181.865 0 
66 1 297.5 186.865 0 
405 2 297.5 181.865 0 
67 1 332.5 186.865 0 
406 2 332.5 181.865 0 
268 1 -13.0801 194.521 0 
607 2 -8.75 197.021 0 
168 1 4.41987 199.521 0 
507 2 8.75 197.021 0 
269 1 21.9199 194.521 0 
608 2 26.25 197.021 0 
169 1 39.4199 199.521 0 
508 2 43.75 197.021 0 
270 1 56.9199 194.521 0 
609 2 61.25 197.021 0 
170 1 74.4199 199.521 0 
509 2 78.75 197.021 0 
261 1 91.9199 194.521 0 
600 2 96.25 197.021 0 
161 1 109.42 199.521 0 
500 2 113.75 197.021 0 
262 1 126.92 194.521 0 
601 2 131.25 197.021 0 
162 1 144.42 199.521 0 
501 2 148.75 197.021 0 
263 1 161.92 194.521 0 
602 2 166.25 197.021 0 
163 1 179.42 199.521 0 
502 2 183.75 197.021 0 
264 1 196.92 194.521 0 
603 2 201.25 197.021 0 
164 1 214.42 199.521 0 
503 2 218.75 197.021 0 
265 1 231.92 194.521 0 
604 2 236.25 197.021 0 
165 1 249.42 199.521 0 
504 2 253.75 197.021 0 
266 1 266.92 194.521 0 
605 2 271.25 197.021 0 
166 1 284.42 199.521 0 
505 2 288.75 197.021 0 
267 1 301.92 194.521 0 
606 2 306.25 197.021 0 
167 1 319.42 199.521 0 
506 2 323.75 197.021 0 
338 1 345.58 199.521 0 
677 2 341.25 197.021 0 
308 1 -6.12323e-16 207.176 0 
647 2 0 212.176 0 
417 2 35 212.176 0 
418 2 70 212.176 0 
419 2 105 212.176 0 
410 2 140 212.176 0 
411 2 175 212.176 0 
412 2 210 212.176 0 
413 2 245 212.176 0 
414 2 280 212.176 0 
415 2 315 212.176 0 
416 2 350 212.176 0 
663 2 -8.75 227.332 0 
278 1 4.41987 224.832 0 
324 1 -4.41987 224.832 0 
617 2 8.75 227.332 0 
517 2 26.25 227.332 0 
78 1 35 217.176 0 
279 1 39.4199 224.832 0 
618 2 43.75 227.332 0 
518 2 61.25 227.332 0 
79 1 70 217.176 0 
280 1 74.4199 224.832 0 
619 2 78.75 227.332 0 
519 2 96.25 227.332 0 
80 1 105 217.176 0 
271 1 109.42 224.832 0 
610 2 113.75 227.332 0 
71 1 140 217.176 0 
510 2 131.25 227.332 0 
272 1 144.42 224.832 0 
611 2 148.75 227.332 0 
72 1 175 217.176 0 
511 2 166.25 227.332 0 
273 1 179.42 224.832 0 
612 2 183.75 227.332 0 
512 2 201.25 227.332 0 
73 1 210 217.176 0 
274 1 214.42 224.832 0 
613 2 218.75 227.332 0 
513 2 236.25 227.332 0 
74 1 245 217.176 0 
275 1 249.42 224.832 0 
614 2 253.75 227.332 0 
514 2 271.25 227.332 0 
75 1 280 217.176 0 
276 1 284.42 224.832 0 
615 2 288.75 227.332 0 
515 2 306.25 227.332 0 
76 1 315 217.176 0 
277 1 319.42 224.832 0 
616 2 323.75 227.332 0 
77 1 350 217.176 0 
516 2 341.25 227.332 0 
309 1 -17.5 237.487 0 
178 1 21.9199 229.832 0 
179 1 56.9199 229.832 0 
180 1 91.9199 229.832 0 
171 1 126.92 229.832 0 
172 1 161.92 229.832 0 
173 1 196.92 229.832 0 
174 1 231.92 229.832 0 
175 1 266.92 229.832 0 
176 1 301.92 229.832 0 
177 1 336.92 229.832 0 
648 2 -17.5 242.487 0 
87 1 17.5 247.487 0 
426 2 17.5 242.487 0 
88 1 52.5 247.487 0 
427 2 52.5 242.487 0 
89 1 87.5 247.487 0 
428 2 87.5 242.487 0 
90 1 122.5 247.487 0 
429 2 122.5 242.487 0 
81 1 157.5 247.487 0 
420 2 157.5 242.487 0 
82 1 192.5 247.487 0 
421 2 192.5 242.487 0 
83 1 227.5 247.487 0 
422 2 227.5 242.487 0 
84 1 262.5 247.487 0 
423 2 262.5 242.487 0 
85 1 297.5 247.487 0 
424 2 297.5 242.487 0 
86 1 332.5 247.487 0 
425 2 332.5 242.487 0 
287 1 -13.0801 255.143 0 
626 2 -8.75 257.643 0 
187 1 4.41987 260.143 0 
526 2 8.75 257.643 0 
288 1 21.9199 255.143 0 
627 2 26.25 257.643 0 
188 1 39.4199 260.143 0 
527 2 43.75 257.643 0 
289 1 56.9199 255.143 0 
628 2 61.25 257.643 0 
189 1 74.4199 260.143 0 
528 2 78.75 257.643 0 
290 1 91.9199 255.143 0 
629 2 96.25 257.643 0 
190 1 109.42 260.143 0 
529 2 113.75 257.643 0 
281 1 126.92 255.143 0 
620 2 131.25 257.643 0 
181 1 144.42 260.143 0 
520 2 148.75 257.643 0 
282 1 161.92 255.143 0 
621 2 166.25 257.643 0 
182 1 179.42 260.143 0 
521 2 183.75 257.643 0 
283 1 196.92 255.143 0 
622 2 201.25 257.643 0 
183 1 214.42 260.143 0 
522 2 218.75 257.643 0 
284 1 231.92 255.143 0 
623 2 236.25 257.643 0 
184 1 249.42 260.143 0 
523 2 253.75 257.643 0 
285 1 266.92 255.143 0 
624 2 271.25 257.643 0 
185 1 284.42 260.143 0 
524 2 288.75 257.643 0 
286 1 301.92 255.143 0 
625 2 306.25 257.643 0 
186 1 319.42 260.143 0 
525 2 323.75 257.643 0 
339 1 345.58 260.143 0 
678 2 341.25 257.643 0 
310 1 -6.12323e-16 267.798 0 
649 2 0 272.798 0 
97 1 35 277.798 0 
436 2 35 272.798 0 
98 1 70 277.798 0 
437 2 70 272.798 0 
99 1 105 277.798 0 
438 2 105 272.798 0 
100 1 140 277.798 0 
439 2 140 272.798 0 
91 1 175 277.798 0 
430 2 175 272.798 0 
92 1 210 277.798 0 
431 2 210 272.798 0 
93 1 245 277.798 0 
432 2 245 272.798 0 
94 1 280 277.798 0 
433 2 280 272.798 0 
95 1 315 277.798 0 
434 2 315 272.798 0 
96 1 350 277.798 0 
435 2 350 272.798 0 
297 1 4.41987 285.453 0 
636 2 8.75 287.953 0 
197 1 21.9199 290.453 0 
536 2 26.25 287.953 0 
298 1 39.4199 285.453 0 
637 2 43.75 287.953 0 
198 1 56.9199 290.453 0 
537 2 61.25 287.953 0 
299 1 74.4199 285.453 0 
638 2 78.75 287.953 0 
199 1 91.9199 290.453 0 
538 2 96.25 287.953 0 
300 1 109.42 285.453 0 
639 2 113.75 287.953 0 
200 1 126.92 290.453 0 
539 2 131.25 287.953 0 
291 1 144.42 285.453 0 
630 2 148.75 287.953 0 
191 1 161.92 290.453 0 
530 2 166.25 287.953 0 
292 1 179.42 285.453 0 
631 2 183.75 287.953 0 
192 1 196.92 290.453 0 
531 2 201.25 287.953 0 
293 1 214.42 285.453 0 
632 2 218.75 287.953 0 
193 1 231.92 290.453 0 
532 2 236.25 287.953 0 
294 1 249.42 285.453 0 
633 2 253.75 287.953 0 
194 1 266.92 290.453 0 
533 2 271.25 287.953 0 
295 1 284.42 285.453 0 
634 2 288.75 287.953 0 
195 1 301.92 290.453 0 
534 2 306.25 287.953 0 
296 1 319.42 285.453 0 
635 2 323.75 287.953 0 
196 1 336.92 290.453 0 
535 2 341.25 287.953 0 
ITEM: TIMESTEP
100
ITEM: NUMBER OF ATOMS
678
ITEM: BOX BOUNDS ss ss pp
-1.8128211448944565e+01 3.5043813818364237e+02
-1.8148688816810225e+01 2.9097156493937837e+02
-2.0000000000000000e-02 2.0000000000000000e-02
ITEM: ATOMS id type x y z 
650 2 -8.75 -15.1554 0 
311 1 -4.54842 -17.9091 0 
325 1 13.2731 -13.0291 0 
664 2 8.75 -15.1554 0 
312 1 30.546 -17.7307 0 
651 2 26.25 -15.1554 0 
326 1 48.1642 -12.8672 0 
665 2 43.75 -15.1554 0 
313 1 65.7281 -17.7223 0 
652 2 61.25 -15.1554 0 
666 2 78.75 -15.1554 0 
327 1 83.121 -12.8976 0 
314 1 100.705 -17.7065 0 
653 2 96.25 -15.1554 0 
667 2 113.75 -15.1554 0 
328 1 118.196 -12.7628 0 
315 1 135.657 -17.7577 0 
654 2 131.25 -15.1554 0 
329 1 153.185 -12.7534 0 
668 2 148.75 -15.1554 0 
655 2 166.25 -15.1554 0 
316 1 170.557 -17.898 0 
330 1 188.242 -12.8826 0 
669 2 183.75 -15.1554 0 
656 2 201.25 -15.1554 0 
317 1 205.595 -17.959 0 
331 1 223.22 -12.8678 0 
670 2 218.75 -15.1554 0 
657 2 236.25 -15.1554 0 
318 1 240.664 -17.9366 0 
332 1 258.197 -12.8617 0 
671 2 253.75 -15.1554 0 
319 1 275.594 -17.9122 0 
658 2 271.25 -15.1554 0 
672 2 288.75 -15.1554 0 
333 1 293.349 -12.8769 0 
320 1 310.715 -17.8275 0 
659 2 306.25 -15.1554 0 
673 2 323.75 -15.1554 0 
334 1 328.218 -12.862 0 
301 1 -17.6578 -5.01319 0 
640 2 -17.5 2.14313e-15 0 
1 1 17.6129 1.3865 0 
340 2 17.5 0 0 
2 1 52.206 2.23964 0 
341 2 52.5 0 0 
3 1 87.3763 2.28792 0 
342 2 87.5 0 0 
4 1 122.439 2.39797 0 
343 2 122.5 0 0 
5 1 157.451 2.27169 0 
344 2 157.5 0 0 
6 1 192.206 2.31208 0 
345 2 192.5 0 0 
7 1 227.355 2.78541 0 
346 2 227.5 0 0 
8 1 262.336 2.10209 0 
347 2 262.5 0 0 
9 1 297.479 2.09549 0 
348 2 297.5 0 0 
10 1 332.425 5.04922 0 
349 2 332.5 0 0 
201 1 -13.1353 12.8622 0 
540 2 -8.75 15.1554 0 
101 1 6.54168 15.7834 0 
440 2 8.75 15.1554 0 
202 1 24.8783 14.8781 0 
541 2 26.25 15.1554 0 
102 1 39.6584 17.5841 0 
441 2 43.75 15.1554 0 
203 1 59.4455 14.7088 0 
542 2 61.25 15.1554 0 
103 1 74.5564 17.6319 0 
442 2 78.75 15.1554 0 
204 1 94.2741 14.7421 0 
543 2 96.25 15.1554 0 
104 1 109.459 17.5195 0 
443 2 113.75 15.1554 0 
205 1 129.144 14.6573 0 
544 2 131.25 15.1554 0 
105 1 144.545 17.5224 0 
444 2 148.75 15.1554 0 
206 1 164.389 14.7195 0 
545 2 166.25 15.1554 0 
106 1 179.446 17.4291 0 
445 2 183.75 15.1554 0 
207 1 199.318 14.7365 0 
546 2 201.25 15.1554 0 
107 1 214.594 17.691 0 
446 2 218.75 15.1554 0 
208 1 234.365 14.7104 0 
547 2 236.25 15.1554 0 
108 1 249.547 17.6354 0 
447 2 253.75 15.1554 0 
209 1 269.309 14.5928 0 
548 2 271.25 15.1554 0 
109 1 284.693 17.4704 0 
448 2 288.75 15.1554 0 
210 1 304.51 14.6384 0 
549 2 306.25 15.1554 0 
110 1 319.504 17.6147 0 
449 2 323.75 15.1554 0 
335 1 345.791 17.4385 0 
674 2 341.25 15.1554 0 
302 1 -0.27489 28.093 0 
641 2 3.88578e-15 30.3109 0 
350 2 35 30.3109 0 
351 2 70 30.3109 0 
352 2 105 30.3109 0 
353 2 140 30.3109 0 
354 2 175 30.3109 0 
355 2 210 30.3109 0 
356 2 245 30.3109 0 
357 2 280 30.3109 0 
358 2 315 30.3109 0 
359 2 350 30.3109 0 
211 1 7.52378 44.7765 0 
321 1 -7.6092 44.617 0 
11 1 34.6125 32.4698 0 
212 1 41.7591 44.9144 0 
12 1 69.6153 32.2842 0 
213 1 76.8744 45.0637 0 
13 1 104.487 32.284 0 
214 1 111.718 44.8408 0 
14 1 139.56 32.2379 0 
215 1 146.883 44.9381 0 
15 1 174.424 32.354 0 
216 1 181.58 44.8616 0 
16 1 209.449 32.199 0 
217 1 216.583 44.7094 0 
17 1 244.437 32.1052 0 
218 1 251.844 44.8822 0 
18 1 279.45 32.1353 0 
219 1 286.614 44.7301 0 
19 1 314.436 32.3047 0 
220 1 321.768 44.7158 0 
20 1 350.383 35.3386 0 
303 1 -17.9625 55.5076 0 
660 2 -8.75 45.4663 0 
550 2 8.75 45.4663 0 
111 1 22.1124 48.0197 0 
450 2 26.25 45.4663 0 
551 2 43.75 45.4663 0 
112 1 57.0844 47.8719 0 
451 2 61.25 45.4663 0 
552 2 78.75 45.4663 0 
113 1 91.9957 47.7932 0 
452 2 96.25 45.4663 0 
553 2 113.75 45.4663 0 
114 1 127.057 47.7518 0 
453 2 131.25 45.4663 0 
554 2 148.75 45.4663 0 
115 1 162.08 47.8811 0 
454 2 166.25 45.4663 0 
555 2 183.75 45.4663 0 
116 1 197.069 47.8515 0 
455 2 201.25 45.4663 0 
556 2 218.75 45.4663 0 
117 1 232.04 47.9744 0 
456 2 236.25 45.4663 0 
557 2 253.75 45.4663 0 
118 1 266.879 48.008 0 
457 2 271.25 45.4663 0 
558 2 288.75 45.4663 0 
119 1 301.897 47.9061 0 
458 2 306.25 45.4663 0 
559 2 323.75 45.4663 0 
120 1 337.072 48.0724 0 
459 2 341.25 45.4663 0 
642 2 -17.5 60.6218 0 
30 1 17.1956 62.323 0 
369 2 17.5 60.6218 0 
21 1 52.0479 63.1147 0 
360 2 52.5 60.6218 0 
22 1 86.8964 62.5855 0 
361 2 87.5 60.6218 0 
23 1 122.056 62.6148 0 
362 2 122.5 60.6218 0 
24 1 156.966 62.7041 0 
363 2 157.5 60.6218 0 
25 1 192.001 62.6941 0 
364 2 192.5 60.6218 0 
26 1 227.029 63.2125 0 
365 2 227.5 60.6218 0 
27 1 262.078 62.5478 0 
366 2 262.5 60.6218 0 
28 1 296.81 62.6547 0 
367 2 297.5 60.6218 0 
29 1 332.392 65.6297 0 
368 2 332.5 60.6218 0 
230 1 -13.2329 73.5061 0 
569 2 -8.75 75.7772 0 
130 1 6.35763 76.9683 0 
469 2 8.75 75.7772 0 
221 1 24.6105 75.0642 0 
560 2 26.25 75.7772 0 
121 1 39.5952 78.3072 0 
460 2 43.75 75.7772 0 
222 1 59.2708 75.1172 0 
561 2 61.25 75.7772 0 
122 1 74.3914 78.2536 0 
461 2 78.75 75.7772 0 
223 1 94.196 75.1808 0 
562 2 96.25 75.7772 0 
123 1 109.346 78.2722 0 
462 2 113.75 75.7772 0 
224 1 128.976 75.0259 0 
563 2 131.25 75.7772 0 
124 1 144.476 78.2632 0 
463 2 148.75 75.7772 0 
225 1 164.132 75.2308 0 
564 2 166.25 75.7772 0 
125 1 179.33 78.3276 0 
464 2 183.75 75.7772 0 
226 1 199.169 75.0816 0 
565 2 201.25 75.7772 0 
126 1 214.485 78.2877 0 
465 2 218.75 75.7772 0 
227 1 234.344 75.3776 0 
566 2 236.25 75.7772 0 
127 1 249.455 78.1988 0 
466 2 253.75 75.7772 0 
228 1 269.27 75.194 0 
567 2 271.25 75.7772 0 
128 1 284.422 78.3053 0 
467 2 288.75 75.7772 0 
229 1 304.04 74.9675 0 
568 2 306.25 75.7772 0 
129 1 319.588 78.2171 0 
468 2 323.75 75.7772 0 
336 1 345.773 78.0258 0 
675 2 341.25 75.7772 0 
304 1 -0.41646 89.019 0 
643 2 0 90.9327 0 
379 2 35 90.9327 0 
370 2 70 90.9327 0 
371 2 105 90.9327 0 
372 2 140 90.9327 0 
373 2 175 90.9327 0 
374 2 210 90.9327 0 
375 2 245 90.9327 0 
376 2 280 90.9327 0 
377 2 315 90.9327 0 
378 2 350 90.9327 0 
240 1 7.10389 105.245 0 
322 1 -8.42587 105.544 0 
40 1 34.4741 93.2493 0 
231 1 41.7399 105.569 0 
31 1 69.459 93.1043 0 
232 1 76.4178 105.127 0 
32 1 104.319 93.5405 0 
233 1 111.777 105.662 0 
33 1 139.575 93.117 0 
234 1 146.486 105.314 0 
34 1 174.564 93.2277 0 
235 1 181.681 105.499 0 
35 1 209.423 92.9435 0 
236 1 216.636 105.439 0 
36 1 244.75 92.8788 0 
237 1 251.718 105.324 0 
37 1 279.696 93.3097 0 
238 1 286.619 105.39 0 
38 1 314.518 93.1159 0 
239 1 321.852 105.357 0 
39 1 350.222 96.1251 0 
305 1 -18.0926 116.243 0 
661 2 -8.75 106.088 0 
579 2 8.75 106.088 0 
140 1 21.9742 108.502 0 
479 2 26.25 106.088 0 
570 2 43.75 106.088 0 
131 1 56.9461 108.591 0 
470 2 61.25 106.088 0 
571 2 78.75 106.088 0 
132 1 92.0717 108.495 0 
471 2 96.25 106.088 0 
572 2 113.75 106.088 0 
133 1 126.961 108.555 0 
472 2 131.25 106.088 0 
573 2 148.75 106.088 0 
134 1 161.967 108.619 0 
473 2 166.25 106.088 0 
574 2 183.75 106.088 0 
135 1 197.08 108.579 0 
474 2 201.25 106.088 0 
575 2 218.75 106.088 0 
136 1 232.078 108.473 0 
475 2 236.25 106.088 0 
576 2 253.75 106.088 0 
137 1 266.884 108.445 0 
476 2 271.25 106.088 0 
577 2 288.75 106.088 0 
138 1 301.949 108.451 0 
477 2 306.25 106.088 0 
578 2 323.75 106.088 0 
139 1 337.054 108.788 0 
478 2 341.25 106.088 0 
644 2 -17.5 121.244 0 
49 1 17.1574 122.902 0 
388 2 17.5 121.244 0 
50 1 51.8777 123.528 0 
389 2 52.5 121.244 0 
41 1 86.9135 123.252 0 
380 2 87.5 121.244 0 
42 1 122.063 123.4 0 
381 2 122.5 121.244 0 
43 1 156.984 123.345 0 
382 2 157.5 121.244 0 
44 1 192.03 123.483 0 
383 2 192.5 121.244 0 
45 1 226.964 123.284 0 
384 2 227.5 121.244 0 
46 1 261.983 123.343 0 
385 2 262.5 121.244 0 
47 1 297.025 123.314 0 
386 2 297.5 121.244 0 
48 1 332.551 126.275 0 
387 2 332.5 121.244 0 
249 1 -13.2302 134.103 0 
588 2 -8.75 136.399 0 
149 1 6.23448 137.494 0 
488 2 8.75 136.399 0 
250 1 24.74 136.094 0 
589 2 26.25 136.399 0 
150 1 39.7409 138.718 0 
489 2 43.75 136.399 0 
241 1 59.4255 135.875 0 
580 2 61.25 136.399 0 
141 1 74.5332 138.736 0 
480 2 78.75 136.399 0 
242 1 94.2312 135.868 0 
581 2 96.25 136.399 0 
142 1 109.54 138.887 0 
481 2 113.75 136.399 0 
243 1 129.233 135.745 0 
582 2 131.25 136.399 0 
143 1 144.382 138.92 0 
482 2 148.75 136.399 0 
244 1 164.094 135.699 0 
583 2 166.25 136.399 0 
144 1 179.332 138.837 0 
483 2 183.75 136.399 0 
245 1 198.965 135.755 0 
584 2 201.25 136.399 0 
145 1 214.567 138.968 0 
484 2 218.75 136.399 0 
246 1 234.321 135.678 0 
585 2 236.25 136.399 0 
146 1 249.466 138.999 0 
485 2 253.75 136.399 0 
247 1 269.181 135.788 0 
586 2 271.25 136.399 0 
147 1 284.618 138.877 0 
486 2 288.75 136.399 0 
248 1 304.17 135.772 0 
587 2 306.25 136.399 0 
148 1 319.743 138.983 0 
487 2 323.75 136.399 0 
337 1 345.708 138.785 0 
676 2 341.25 136.399 0 
306 1 -0.449427 149.703 0 
645 2 0 151.554 0 
398 2 35 151.554 0 
399 2 70 151.554 0 
390 2 105 151.554 0 
391 2 140 151.554 0 
392 2 175 151.554 0 
393 2 210 151.554 0 
394 2 245 151.554 0 
395 2 280 151.554 0 
396 2 315 151.554 0 
397 2 350 151.554 0 
662 2 -8.75 166.71 0 
259 1 7.15546 165.912 0 
323 1 -8.05173 165.988 0 
598 2 8.75 166.71 0 
498 2 26.25 166.71 0 
59 1 34.5992 153.467 0 
260 1 41.6807 166.032 0 
599 2 43.75 166.71 0 
499 2 61.25 166.71 0 
60 1 69.3489 153.492 0 
251 1 76.4131 165.771 0 
590 2 78.75 166.71 0 
490 2 96.25 166.71 0 
51 1 104.585 153.684 0 
252 1 111.624 166.112 0 
591 2 113.75 166.71 0 
52 1 139.369 153.582 0 
491 2 131.25 166.71 0 
253 1 146.754 166.132 0 
592 2 148.75 166.71 0 
492 2 166.25 166.71 0 
53 1 174.398 153.641 0 
254 1 181.585 166.072 0 
593 2 183.75 166.71 0 
493 2 201.25 166.71 0 
54 1 209.482 153.743 0 
255 1 216.533 166.032 0 
594 2 218.75 166.71 0 
494 2 236.25 166.71 0 
55 1 244.603 153.721 0 
256 1 251.621 166.167 0 
595 2 253.75 166.71 0 
495 2 271.25 166.71 0 
56 1 279.596 153.746 0 
257 1 286.661 166.073 0 
596 2 288.75 166.71 0 
496 2 306.25 166.71 0 
57 1 314.573 153.612 0 
258 1 321.744 166.082 0 
597 2 323.75 166.71 0 
58 1 350.425 156.745 0 
497 2 341.25 166.71 0 
307 1 -18.1467 176.792 0 
159 1 22.0497 169.249 0 
160 1 56.9294 169.207 0 
151 1 91.9081 169.032 0 
152 1 126.948 169.208 0 
153 1 161.979 169.282 0 
154 1 197.013 169.227 0 
155 1 231.947 169.059 0 
156 1 267.005 169.148 0 
157 1 302.049 169.133 0 
158 1 336.993 169.528 0 
646 2 -17.5 181.865 0 
68 1 17.1086 183.445 0 
407 2 17.5 181.865 0 
69 1 52.0072 183.676 0 
408 2 52.5 181.865 0 
70 1 86.9695 184.116 0 
409 2 87.5 181.865 0 
61 1 122.195 184.04 0 
400 2 122.5 181.865 0 
62 1 157.069 183.956 0 
401 2 157.5 181.865 0 
63 1 192.117 184.323 0 
402 2 192.5 181.865 0 
64 1 226.973 183.964 0 
403 2 227.5 181.865 0 
65 1 261.951 184.246 0 
404 2 262.5 181.865 0 
66 1 297.007 183.952 0 
405 2 297.5 181.865 0 
67 1 332.483 186.926 0 
406 2 332.5 181.865 0 
268 1 -13.2813 194.661 0 
607 2 -8.75 197.021 0 
168 1 6.30079 197.991 0 
507 2 8.75 197.021 0 
269 1 24.9208 196.624 0 
608 2 26.25 197.021 0 
169 1 39.726 199.334 0 
508 2 43.75 197.021 0 
270 1 59.302 196.427 0 
609 2 61.25 197.021 0 
170 1 74.518 199.491 0 
509 2 78.75 197.021 0 
261 1 94.2009 196.227 0 
600 2 96.25 197.021 0 
161 1 109.389 199.487 0 
500 2 113.75 197.021 0 
262 1 129.28 196.69 0 
601 2 131.25 197.021 0 
162 1 144.492 199.602 0 
501 2 148.75 197.021 0 
263 1 164.226 196.45 0 
602 2 166.25 197.021 0 
163 1 179.547 199.484 0 
502 2 183.75 197.021 0 
264 1 199.361 196.648 0 
603 2 201.25 197.021 0 
164 1 214.405 199.442 0 
503 2 218.75 197.021 0 
265 1 234.212 196.252 0 
604 2 236.25 197.021 0 
165 1 249.459 199.519 0 
504 2 253.75 197.021 0 
266 1 269.366 196.451 0 
605 2 271.25 197.021 0 
166 1 284.502 199.532 0 
505 2 288.75 197.021 0 
267 1 304.289 196.313 0 
606 2 306.25 197.021 0 
167 1 319.427 199.537 0 
506 2 323.75 197.021 0 
338 1 345.628 199.559 0 
677 2 341.25 197.021 0 
308 1 -0.479435 210.062 0 
647 2 0 212.176 0 
417 2 35 212.176 0 
418 2 70 212.176 0 
419 2 105 212.176 0 
410 2 140 212.176 0 
411 2 175 212.176 0 
412 2 210 212.176 0 
413 2 245 212.176 0 
414 2 280 212.176 0 
415 2 315 212.176 0 
416 2 350 212.176 0 
663 2 -8.75 227.332 0 
278 1 6.57924 226.155 0 
324 1 -8.51722 226.56 0 
617 2 8.75 227.332 0 
517 2 26.25 227.332 0 
78 1 34.4717 214.576 0 
279 1 41.772 226.682 0 
618 2 43.75 227.332 0 
518 2 61.25 227.332 0 
79 1 69.3179 214.549 0 
280 1 76.6201 226.551 0 
619 2 78.75 227.332 0 
519 2 96.25 227.332 0 
80 1 104.592 214.166 0 
271 1 111.568 226.532 0 
610 2 113.75 227.332 0 
71 1 139.551 214.296 0 
510 2 131.25 227.332 0 
272 1 146.704 226.777 0 
611 2 148.75 227.332 0 
72 1 174.533 214.341 0 
511 2 166.25 227.332 0 
273 1 181.731 226.703 0 
612 2 183.75 227.332 0 
512 2 201.25 227.332 0 
73 1 209.493 214.302 0 
274 1 216.772 226.697 0 
613 2 218.75 227.332 0 
513 2 236.25 227.332 0 
74 1 244.423 214.467 0 
275 1 251.764 226.788 0 
614 2 253.75 227.332 0 
514 2 271.25 227.332 0 
75 1 279.481 214.345 0 
276 1 286.674 226.821 0 
615 2 288.75 227.332 0 
515 2 306.25 227.332 0 
76 1 314.475 214.666 0 
277 1 321.654 226.732 0 
616 2 323.75 227.332 0 
77 1 350.276 217.232 0 
516 2 341.25 227.332 0 
309 1 -18.1008 237.569 0 
178 1 21.9839 229.774 0 
179 1 57.0452 229.897 0 
180 1 92.0183 229.666 0 
171 1 126.958 229.745 0 
172 1 162.024 229.937 0 
173 1 197.039 229.889 0 
174 1 231.938 229.893 0 
175 1 267.153 229.871 0 
176 1 301.779 229.807 0 
177 1 337.071 230.162 0 
648 2 -17.5 242.487 0 
87 1 17.169 243.742 0 
426 2 17.5 242.487 0 
88 1 51.9675 244.633 0 
427 2 52.5 242.487 0 
89 1 87.0401 244.435 0 
428 2 87.5 242.487 0 
90 1 121.991 244.566 0 
429 2 122.5 242.487 0 
81 1 157.069 244.642 0 
420 2 157.5 242.487 0 
82 1 191.881 244.601 0 
421 2 192.5 242.487 0 
83 1 227.008 244.958 0 
422 2 227.5 242.487 0 
84 1 262.14 244.659 0 
423 2 262.5 242.487 0 
85 1 296.927 244.297 0 
424 2 297.5 242.487 0 
86 1 332.293 247.569 0 
425 2 332.5 242.487 0 
287 1 -13.2536 255.405 0 
626 2 -8.75 257.643 0 
187 1 6.16246 258.87 0 
526 2 8.75 257.643 0 
288 1 23.9958 256.919 0 
627 2 26.25 257.643 0 
188 1 39.4747 260.273 0 
527 2 43.75 257.643 0 
289 1 58.9407 256.847 0 
628 2 61.25 257.643 0 
189 1 74.5122 260.063 0 
528 2 78.75 257.643 0 
290 1 94.1201 257.102 0 