ITEM: TIMESTEP
0
ITEM: NUMBER OF ATOMS
440
ITEM: BOX BOUNDS ss ss pp
-3.6000000000000004e-02 3.0003600000000000e+02
-3.6000000000000004e-02 3.0003600000000000e+02
-2.0000000000000000e-02 2.0000000000000000e-02
ITEM: ATOMS id type x y z 
1 1 20 0 0 
2 1 50 0 0 
3 1 80 0 0 
4 1 110 0 0 
5 1 140 0 0 
11 1 20 30 0 
12 1 50 30 0 
13 1 80 30 0 
14 1 110 30 0 
15 1 140 30 0 
21 1 20 60 0 
22 1 50 60 0 
23 1 80 60 0 
24 1 110 60 0 
25 1 140 60 0 
31 1 20 90 0 
32 1 50 90 0 
33 1 80 90 0 
34 1 110 90 0 
35 1 140 90 0 
41 1 20 120 0 
42 1 50 120 0 
43 1 80 120 0 
44 1 110 120 0 
45 1 140 120 0 
51 1 20 150 0 
52 1 50 150 0 
53 1 80 150 0 
54 1 110 150 0 
55 1 140 150 0 
101 1 0 20 0 
102 1 30 20 0 
103 1 60 20 0 
104 1 90 20 0 
105 1 120 20 0 
106 1 150 20 0 
111 1 0 50 0 
112 1 30 50 0 
113 1 60 50 0 
114 1 90 50 0 
115 1 120 50 0 
116 1 150 50 0 
121 1 0 80 0 
122 1 30 80 0 
123 1 60 80 0 
124 1 90 80 0 
125 1 120 80 0 
126 1 150 80 0 
131 1 0 110 0 
132 1 30 110 0 
133 1 60 110 0 
134 1 90 110 0 
135 1 120 110 0 
136 1 150 110 0 
141 1 0 140 0 
142 1 30 140 0 
143 1 60 140 0 
144 1 90 140 0 
145 1 120 140 0 
146 1 150 140 0 
221 2 15 0 0 
222 2 45 0 0 
223 2 75 0 0 
224 2 105 0 0 
225 2 135 0 0 
231 2 15 30 0 
232 2 45 30 0 
233 2 75 30 0 
234 2 105 30 0 
235 2 135 30 0 
241 2 15 60 0 
242 2 45 60 0 
243 2 75 60 0 
244 2 105 60 0 
245 2 135 60 0 
251 2 15 90 0 
252 2 45 90 0 
253 2 75 90 0 
254 2 105 90 0 
255 2 135 90 0 
261 2 15 120 0 
262 2 45 120 0 
263 2 75 120 0 
264 2 105 120 0 
265 2 135 120 0 
271 2 15 150 0 
272 2 45 150 0 
273 2 75 150 0 
274 2 105 150 0 
275 2 135 150 0 
321 2 0 15 0 
322 2 30 15 0 
323 2 60 15 0 
324 2 90 15 0 
325 2 120 15 0 
326 2 150 15 0 
331 2 0 45 0 
332 2 30 45 0 
333 2 60 45 0 
334 2 90 45 0 
335 2 120 45 0 
336 2 150 45 0 
341 2 0 75 0 
342 2 30 75 0 
343 2 60 75 0 
344 2 90 75 0 
345 2 120 75 0 
346 2 150 75 0 
351 2 0 105 0 
352 2 30 105 0 
353 2 60 105 0 
354 2 90 105 0 
355 2 120 105 0 
356 2 150 105 0 
361 2 0 135 0 
362 2 30 135 0 
363 2 60 135 0 
364 2 90 135 0 
365 2 120 135 0 
366 2 150 135 0 
6 1 170 0 0 
7 1 200 0 0 
8 1 230 0 0 
9 1 260 0 0 
10 1 290 0 0 
16 1 170 30 0 
17 1 200 30 0 
18 1 230 30 0 
19 1 260 30 0 
20 1 290 30 0 
26 1 170 60 0 
27 1 200 60 0 
28 1 230 60 0 
29 1 260 60 0 
30 1 290 60 0 
36 1 170 90 0 
37 1 200 90 0 
38 1 230 90 0 
39 1 260 90 0 
40 1 290 90 0 
46 1 170 120 0 
47 1 200 120 0 
48 1 230 120 0 
49 1 260 120 0 
50 1 290 120 0 
56 1 170 150 0 
57 1 200 150 0 
58 1 230 150 0 
59 1 260 150 0 
60 1 290 150 0 
107 1 180 20 0 
108 1 210 20 0 
109 1 240 20 0 
110 1 270 20 0 
117 1 180 50 0 
118 1 210 50 0 
119 1 240 50 0 
120 1 270 50 0 
127 1 180 80 0 
128 1 210 80 0 
129 1 240 80 0 
130 1 270 80 0 
137 1 180 110 0 
138 1 210 110 0 
139 1 240 110 0 
140 1 270 110 0 
147 1 180 140 0 
148 1 210 140 0 
149 1 240 140 0 
150 1 270 140 0 
201 1 300 20 0 
202 1 300 50 0 
203 1 300 80 0 
204 1 300 110 0 
205 1 300 140 0 
226 2 165 0 0 
227 2 195 0 0 
228 2 225 0 0 
229 2 255 0 0 
230 2 285 0 0 
236 2 165 30 0 
237 2 195 30 0 
238 2 225 30 0 
239 2 255 30 0 
240 2 285 30 0 
246 2 165 60 0 
247 2 195 60 0 
248 2 225 60 0 
249 2 255 60 0 
250 2 285 60 0 
256 2 165 90 0 
257 2 195 90 0 
258 2 225 90 0 
259 2 255 90 0 
260 2 285 90 0 
266 2 165 120 0 
267 2 195 120 0 
268 2 225 120 0 
269 2 255 120 0 
270 2 285 120 0 
276 2 165 150 0 
277 2 195 150 0 
278 2 225 150 0 
279 2 255 150 0 
280 2 285 150 0 
327 2 180 15 0 
328 2 210 15 0 
329 2 240 15 0 
330 2 270 15 0 
337 2 180 45 0 
338 2 210 45 0 
339 2 240 45 0 
340 2 270 45 0 
347 2 180 75 0 
348 2 210 75 0 
349 2 240 75 0 
350 2 270 75 0 
357 2 180 105 0 
358 2 210 105 0 
359 2 240 105 0 
360 2 270 105 0 
367 2 180 135 0 
368 2 210 135 0 
369 2 240 135 0 
370 2 270 135 0 
421 2 300 15 0 
422 2 300 45 0 
423 2 300 75 0 
424 2 300 105 0 
425 2 300 135 0 
61 1 20 180 0 
62 1 50 180 0 
63 1 80 180 0 
64 1 110 180 0 
65 1 140 180 0 
71 1 20 210 0 
72 1 50 210 0 
73 1 80 210 0 
74 1 110 210 0 
75 1 140 210 0 
81 1 20 240 0 
82 1 50 240 0 
83 1 80 240 0 
84 1 110 240 0 
85 1 140 240 0 
91 1 20 270 0 
92 1 50 270 0 
93 1 80 270 0 
94 1 110 270 0 
95 1 140 270 0 
151 1 0 170 0 
152 1 30 170 0 
153 1 60 170 0 
154 1 90 170 0 
155 1 120 170 0 
156 1 150 170 0 
161 1 0 200 0 
162 1 30 200 0 
163 1 60 200 0 
164 1 90 200 0 
165 1 120 200 0 
166 1 150 200 0 
171 1 0 230 0 
172 1 30 230 0 
173 1 60 230 0 
174 1 90 230 0 
175 1 120 230 0 
176 1 150 230 0 
181 1 0 260 0 
182 1 30 260 0 
183 1 60 260 0 
184 1 90 260 0 
185 1 120 260 0 
186 1 150 260 0 
191 1 0 290 0 
192 1 30 290 0 
193 1 60 290 0 
194 1 90 290 0 
195 1 120 290 0 
196 1 150 290 0 
211 1 20 300 0 
212 1 50 300 0 
213 1 80 300 0 
214 1 110 300 0 
215 1 140 300 0 
281 2 15 180 0 
282 2 45 180 0 
283 2 75 180 0 
284 2 105 180 0 
285 2 135 180 0 
291 2 15 210 0 
292 2 45 210 0 
293 2 75 210 0 
294 2 105 210 0 
295 2 135 210 0 
301 2 15 240 0 
302 2 45 240 0 
303 2 75 240 0 
304 2 105 240 0 
305 2 135 240 0 
311 2 15 270 0 
312 2 45 270 0 
313 2 75 270 0 
314 2 105 270 0 
315 2 135 270 0 
371 2 0 165 0 
372 2 30 165 0 
373 2 60 165 0 
374 2 90 165 0 
375 2 120 165 0 
376 2 150 165 0 
381 2 0 195 0 
382 2 30 195 0 
383 2 60 195 0 
384 2 90 195 0 
385 2 120 195 0 
386 2 150 195 0 
391 2 0 225 0 
392 2 30 225 0 
393 2 60 225 0 
394 2 90 225 0 
395 2 120 225 0 
396 2 150 225 0 
401 2 0 255 0 
402 2 30 255 0 
403 2 60 255 0 
404 2 90 255 0 
405 2 120 255 0 
406 2 150 255 0 
411 2 0 285 0 
412 2 30 285 0 
413 2 60 285 0 
414 2 90 285 0 
415 2 120 285 0 
416 2 150 285 0 
431 2 15 300 0 
432 2 45 300 0 
433 2 75 300 0 
434 2 105 300 0 
435 2 135 300 0 
66 1 170 180 0 
67 1 200 180 0 
68 1 230 180 0 
69 1 260 180 0 
70 1 290 180 0 
76 1 170 210 0 
77 1 200 210 0 
78 1 230 210 0 
79 1 260 210 0 
80 1 290 210 0 
86 1 170 240 0 
87 1 200 240 0 
88 1 230 240 0 
89 1 260 240 0 
90 1 290 240 0 
96 1 170 270 0 
97 1 200 270 0 
98 1 230 270 0 
99 1 260 270 0 
100 1 290 270 0 
157 1 180 170 0 
158 1 210 170 0 
159 1 240 170 0 
160 1 270 170 0 
167 1 180 200 0 
168 1 210 200 0 
169 1 240 200 0 
170 1 270 200 0 
177 1 180 230 0 
178 1 210 230 0 
179 1 240 230 0 
180 1 270 230 0 
187 1 180 260 0 
188 1 210 260 0 
189 1 240 260 0 
190 1 270 260 0 
197 1 180 290 0 
198 1 210 290 0 
199 1 240 290 0 
200 1 270 290 0 
206 1 300 170 0 
207 1 300 200 0 
208 1 300 230 0 
209 1 300 260 0 
210 1 300 290 0 
216 1 170 300 0 
217 1 200 300 0 
218 1 230 300 0 
219 1 260 300 0 
220 1 290 300 0 
286 2 165 180 0 
287 2 195 180 0 
288 2 225 180 0 
289 2 255 180 0 
290 2 285 180 0 
296 2 165 210 0 
297 2 195 210 0 
298 2 225 210 0 
299 2 255 210 0 
300 2 285 210 0 
306 2 165 240 0 
307 2 195 240 0 
308 2 225 240 0 
309 2 255 240 0 
310 2 285 240 0 
316 2 165 270 0 
317 2 195 270 0 
318 2 225 270 0 
319 2 255 270 0 
320 2 285 270 0 
377 2 180 165 0 
378 2 210 165 0 
379 2 240 165 0 
380 2 270 165 0 
387 2 180 195 0 
388 2 210 195 0 
389 2 240 195 0 
390 2 270 195 0 
397 2 180 225 0 
398 2 210 225 0 
399 2 240 225 0 
400 2 270 225 0 
407 2 180 255 0 
408 2 210 255 0 
409 2 240 255 0 
410 2 270 255 0 
417 2 180 285 0 
418 2 210 285 0 
419 2 240 285 0 
420 2 270 285 0 
426 2 300 165 0 
427 2 300 195 0 
428 2 300 225 0 
429 2 300 255 0 
430 2 300 285 0 
436 2 165 300 0 
437 2 195 300 0 
438 2 225 300 0 
439 2 255 300 0 
440 2 285 300 0 
ITEM: TIMESTEP
100
ITEM: NUMBER OF ATOMS
440
ITEM: BOX BOUNDS ss ss pp
-4.9820621492210015e-01 3.0068640932275525e+02
-4.5886246248117102e-01 3.0057998076826880e+02
-2.0000000000000000e-02 2.0000000000000000e-02
ITEM: ATOMS id type x y z 
1 1 18.3563 -0.315379 0 
2 1 49.4475 -0.321813 0 
3 1 79.7224 -0.324101 0 
4 1 109.594 -0.336126 0 
5 1 139.84 -0.426543 0 
11 1 15.7392 30.1835 0 
12 1 47.4454 30.0464 0 
13 1 77.3208 30.0428 0 
14 1 107.117 30.0702 0 
15 1 136.657 30.0131 0 
21 1 15.6266 59.9924 0 
22 1 46.9107 60.2456 0 
23 1 76.7734 60.0356 0 
24 1 107.511 60.116 0 
25 1 137.714 60.0813 0 
31 1 16.5639 90.1414 0 
32 1 47.0064 90.1121 0 
33 1 76.544 90.0688 0 
34 1 107.291 90.1224 0 
35 1 136.896 90.0503 0 
41 1 15.898 120.164 0 
42 1 46.4538 119.998 0 
43 1 77.2608 120.024 0 
44 1 107.373 120.199 0 
45 1 136.405 120.09 0 
51 1 16.0287 150.218 0 
52 1 46.646 150.13 0 
53 1 76.1506 150.075 0 
54 1 106.197 150.077 0 
55 1 137.023 150.135 0 
101 1 -0.265488 18.2565 0 
102 1 30.02 16.0388 0 
103 1 60.1814 16.1693 0 
104 1 90.1591 15.6923 0 
105 1 120.032 15.8078 0 
106 1 150.308 16.1938 0 
111 1 -0.326436 49.4117 0 
112 1 30.1471 47.3094 0 
113 1 60.2567 47.4643 0 
114 1 90.1414 47.2227 0 
115 1 120.051 46.3211 0 
116 1 150.032 46.632 0 
121 1 -0.276965 79.6113 0 
122 1 30.0863 77.1141 0 
123 1 60.0356 76.6505 0 
124 1 90.0852 76.7787 0 
125 1 119.957 76.508 0 
126 1 150.093 77.0485 0 
131 1 -0.283359 110.038 0 
132 1 30.007 107.191 0 
133 1 59.9199 107.247 0 
134 1 90.289 106.632 0 
135 1 120.043 106.521 0 
136 1 150.125 106.944 0 
141 1 -0.370763 139.753 0 
142 1 30.0387 136.979 0 
143 1 60.2298 137.24 0 
144 1 89.953 137.345 0 
145 1 120.149 137.556 0 
146 1 150.179 136.732 0 
221 2 15 0 0 
222 2 45 0 0 
223 2 75 0 0 
224 2 105 0 0 
225 2 135 0 0 
231 2 15 30 0 
232 2 45 30 0 
233 2 75 30 0 
234 2 105 30 0 
235 2 135 30 0 
241 2 15 60 0 
242 2 45 60 0 
243 2 75 60 0 
244 2 105 60 0 
245 2 135 60 0 
251 2 15 90 0 
252 2 45 90 0 
253 2 75 90 0 
254 2 105 90 0 
255 2 135 90 0 
261 2 15 120 0 
262 2 45 120 0 
263 2 75 120 0 
264 2 105 120 0 
265 2 135 120 0 
271 2 15 150 0 
272 2 45 150 0 
273 2 75 150 0 
274 2 105 150 0 
275 2 135 150 0 
321 2 0 15 0 
322 2 30 15 0 
323 2 60 15 0 
324 2 90 15 0 
325 2 120 15 0 
326 2 150 15 0 
331 2 0 45 0 
332 2 30 45 0 
333 2 60 45 0 
334 2 90 45 0 
335 2 120 45 0 
336 2 150 45 0 
341 2 0 75 0 
342 2 30 75 0 
343 2 60 75 0 
344 2 90 75 0 
345 2 120 75 0 
346 2 150 75 0 
351 2 0 105 0 
352 2 30 105 0 
353 2 60 105 0 
354 2 90 105 0 
355 2 120 105 0 
356 2 150 105 0 
361 2 0 135 0 
362 2 30 135 0 
363 2 60 135 0 
364 2 90 135 0 
365 2 120 135 0 
366 2 150 135 0 
6 1 169.89 -0.347824 0 
7 1 199.829 -0.491639 0 
8 1 229.482 -0.360762 0 
9 1 259.875 -0.183691 0 
10 1 289.951 -0.42223 0 
16 1 166.842 30.0746 0 
17 1 197.215 29.9734 0 
18 1 227.827 30.0404 0 
19 1 256.981 30.1022 0 
20 1 288.551 29.9884 0 
26 1 167.449 60.1819 0 
27 1 197.212 60.2468 0 
28 1 226.881 60.0928 0 
29 1 257.844 60.028 0 
30 1 287.595 60.1156 0 
36 1 167.012 89.9368 0 
37 1 196.826 90.1916 0 
38 1 227.416 90.2063 0 
39 1 257.819 90.0717 0 
40 1 288.845 90.2466 0 
46 1 166.587 120.082 0 
47 1 196.946 120.119 0 
48 1 227.717 120.188 0 
49 1 257.138 120.133 0 
50 1 287.623 120.203 0 
56 1 166.571 150.108 0 
57 1 196.715 150.042 0 
58 1 227.477 150.259 0 
59 1 256.539 150.006 0 
60 1 288.123 150.194 0 
107 1 180.055 15.8176 0 
108 1 210.118 16.0102 0 
109 1 240.119 15.6908 0 
110 1 270.157 15.7238 0 
117 1 180.146 46.7083 0 
118 1 210.069 46.5977 0 
119 1 240.216 46.9072 0 
120 1 270.299 46.5504 0 
127 1 180.072 76.8663 0 
128 1 210.04 76.8081 0 
129 1 240.197 76.8214 0 
130 1 270.177 76.4327 0 
137 1 180.13 106.985 0 
138 1 210.169 107.318 0 
139 1 240.11 106.565 0 
140 1 270.207 107.33 0 
147 1 180.116 137.416 0 
148 1 210.056 137.336 0 
149 1 240.14 136.533 0 
150 1 270.187 136.502 0 
201 1 300.33 15.8089 0 
202 1 300.369 46.4834 0 
203 1 300.296 76.3447 0 
204 1 300.551 108.053 0 
205 1 300.456 137.034 0 
226 2 165 0 0 
227 2 195 0 0 
228 2 225 0 0 
229 2 255 0 0 
230 2 285 0 0 
236 2 165 30 0 
237 2 195 30 0 
238 2 225 30 0 
239 2 255 30 0 
240 2 285 30 0 
246 2 165 60 0 
247 2 195 60 0 
248 2 225 60 0 
249 2 255 60 0 
250 2 285 60 0 
256 2 165 90 0 
257 2 195 90 0 
258 2 225 90 0 
259 2 255 90 0 
260 2 285 90 0 
266 2 165 120 0 
267 2 195 120 0 
268 2 225 120 0 
269 2 255 120 0 
270 2 285 120 0 
276 2 165 150 0 
277 2 195 150 0 
278 2 225 150 0 
279 2 255 150 0 
280 2 285 150 0 
327 2 180 15 0 
328 2 210 15 0 
329 2 240 15 0 
330 2 270 15 0 
337 2 180 45 0 
338 2 210 45 0 
339 2 240 45 0 
340 2 270 45 0 
347 2 180 75 0 
348 2 210 75 0 
349 2 240 75 0 
350 2 270 75 0 
357 2 180 105 0 
358 2 210 105 0 
359 2 240 105 0 
360 2 270 105 0 
367 2 180 135 0 
368 2 210 135 0 
369 2 240 135 0 
370 2 270 135 0 
421 2 300 15 0 
422 2 300 45 0 
423 2 300 75 0 
424 2 300 105 0 
425 2 300 135 0 
61 1 15.6178 180.231 0 
62 1 46.1309 180.093 0 
63 1 77.049 179.996 0 
64 1 106.58 180.137 0 
65 1 136.849 180.077 0 
71 1 16.1335 210.252 0 
72 1 46.8123 210.096 0 
73 1 76.889 210.029 0 
74 1 106.359 210.084 0 
75 1 136.539 210.257 0 
81 1 15.8358 240.202 0 
82 1 46.4636 240.044 0 
83 1 76.9526 240.057 0 
84 1 106.993 240.208 0 
85 1 137.179 240.094 0 
91 1 16.105 270.213 0 
92 1 46.8291 270.299 0 
93 1 76.1899 270.216 0 
94 1 107.316 270.268 0 
95 1 136.841 270.074 0 
151 1 -0.388883 169.62 0 
152 1 30.107 167.529 0 
153 1 60.0554 167.074 0 
154 1 90.2458 166.749 0 
155 1 120.002 166.815 0 
156 1 150.107 166.974 0 
161 1 -0.278877 199.182 0 
162 1 29.9529 196.901 0 
163 1 60.172 197.031 0 
164 1 90.1919 197.454 0 
165 1 120.184 196.921 0 
166 1 150.067 196.798 0 
171 1 -0.289199 229.793 0 
172 1 29.9339 226.877 0 
173 1 60.1206 226.788 0 
174 1 90.0247 227.621 0 
175 1 120.05 226.966 0 
176 1 150.13 226.872 0 
181 1 -0.446202 259.637 0 
182 1 30.0161 257.511 0 
183 1 60.1326 256.362 0 
184 1 90.1187 257.634 0 
185 1 120.107 257.166 0 
186 1 149.915 257.332 0 
191 1 -0.386815 289.858 0 
192 1 30.1064 288.679 0 
193 1 60.1015 288.601 0 
194 1 90.2737 286.895 0 
195 1 120.123 289.203 0 
196 1 150.187 287.845 0 
211 1 16.3658 300.292 0 
212 1 46.8924 300.512 0 
213 1 78.4347 300.475 0 
214 1 106.665 300.455 0 
215 1 137.458 300.316 0 
281 2 15 180 0 
282 2 45 180 0 
283 2 75 180 0 
284 2 105 180 0 
285 2 135 180 0 
291 2 15 210 0 
292 2 45 210 0 
293 2 75 210 0 
294 2 105 210 0 
295 2 135 210 0 
301 2 15 240 0 
302 2 45 240 0 
303 2 75 240 0 
304 2 105 240 0 
305 2 135 240 0 
311 2 15 270 0 
312 2 45 270 0 
313 2 75 270 0 
314 2 105 270 0 
315 2 135 270 0 
371 2 0 165 0 
372 2 30 165 0 
373 2 60 165 0 
374 2 90 165 0 
375 2 120 165 0 
376 2 150 165 0 
381 2 0 195 0 
382 2 30 195 0 
383 2 60 195 0 
384 2 90 195 0 
385 2 120 195 0 
386 2 150 195 0 
391 2 0 225 0 
392 2 30 225 0 
393 2 60 225 0 
394 2 90 225 0 
395 2 120 225 0 
396 2 150 225 0 
401 2 0 255 0 
402 2 30 255 0 
403 2 60 255 0 
404 2 90 255 0 
405 2 120 255 0 
406 2 150 255 0 
411 2 0 285 0 
412 2 30 285 0 
413 2 60 285 0 
414 2 90 285 0 
415 2 120 285 0 
416 2 150 285 0 
431 2 15 300 0 
432 2 45 300 0 
433 2 75 300 0 
434 2 105 300 0 
435 2 135 300 0 
66 1 166.886 180.129 0 
67 1 196.605 180.01 0 
68 1 227.428 180.114 0 
69 1 257.624 180.087 0 
70 1 287.272 180.184 0 
76 1 167.043 209.993 0 
77 1 197.046 209.971 0 
78 1 226.825 210.148 0 
79 1 257.038 210.044 0 
80 1 288.481 210.149 0 
86 1 166.679 240.182 0 
87 1 197.291 240.157 0 
88 1 227.56 240.155 0 
89 1 258.153 240.065 0 
90 1 287.891 240.202 0 
96 1 166.455 270.163 0 
97 1 197.061 270.335 0 
98 1 227.454 270.208 0 
99 1 257.27 270.203 0 
100 1 287.854 270.137 0 
157 1 180.151 167.138 0 
158 1 210.188 167.162 0 
159 1 240.165 166.724 0 
160 1 270.224 166.669 0 
167 1 180.144 196.869 0 
168 1 210.023 196.604 0 
169 1 240.169 197.412 0 
170 1 270.117 197.146 0 
177 1 180.231 227.046 0 
178 1 210.07 226.916 0 
179 1 240.221 227.008 0 
180 1 270.165 226.443 0 
187 1 180.074 256.911 0 
188 1 210.179 257.523 0 
189 1 240.274 257.342 0 
190 1 270.12 257.664 0 
197 1 179.941 288.629 0 
198 1 209.978 288.047 0 
199 1 240.189 289.079 0 
200 1 270.063 288.322 0 
206 1 300.429 167.176 0 
207 1 300.479 197.165 0 
208 1 300.503 226.611 0 
209 1 300.273 257.392 0 
210 1 300.312 289.16 0 
216 1 166.997 300.385 0 
217 1 197.267 300.462 0 
218 1 225.823 300.286 0 
219 1 256.922 300.497 0 
220 1 287.309 300.32 0 
286 2 165 180 0 
287 2 195 180 0 
288 2 225 180 0 
289 2 255 180 0 
290 2 285 180 0 
296 2 165 210 0 
297 2 195 210 0 
298 2 225 210 0 
299 2 255 210 0 
300 2 285 210 0 
306 2 165 240 0 
307 2 195 240 0 
308 2 225 240 0 
309 2 255 240 0 
310 2 285 240 0 
316 2 165 270 0 
317 2 195 270 0 
318 2 225 270 0 
319 2 255 270 0 
320 2 285 270 0 
377 2 180 165 0 
378 2 210 165 0 
379 2 240 165 0 
380 2 270 165 0 
387 2 180 195 0 
388 2 210 195 0 
389 2 240 195 0 
390 2 270 195 0 
397 2 180 225 0 
398 2 210 225 0 
399 2 240 225 0 
400 2 270 225 0 
407 2 180 255 0 
408 2 210 255 0 
409 2 240 255 0 
410 2 270 255 0 
417 2 180 285 0 
418 2 210 285 0 
419 2 240 285 0 
420 2 270 285 0 
426 2 300 165 0 
427 2 300 195 0 
428 2 300 225 0 
429 2 300 255 0 
430 2 300 285 0 
436 2 165 300 0 
437 2 195 300 0 
438 2 225 300 0 
439 2 255 300 0 
440 2 285 300 0 
ITEM: TIMESTEP
200
ITEM: NUMBER OF ATOMS
440
ITEM: BOX BOUNDS ss ss pp
-4.7985556444654609e-01 3.0060264239400590e+02
-5.4859056597339340e-01 3.0060056985950615e+02
-2.0000000000000000e-02 2.0000000000000000e-02
ITEM: ATOMS id type x y z 
1 1 15.4335 -0.499913 0 
2 1 47.9822 -0.386298 0 
3 1 78.2471 -0.406918 0 
4 1 108.764 -0.393274 0 
5 1 139.555 -0.340976 0 
11 1 14.9584 30.0407 0 
12 1 45.7938 29.8627 0 
13 1 76.6177 29.9023 0 
14 1 105.901 30.0164 0 
15 1 135.584 29.7793 0 
21 1 14.9116 59.9684 0 
22 1 44.5223 60.1029 0 
23 1 76.122 59.9117 0 
24 1 106.118 59.8574 0 
25 1 136.527 60.0833 0 
31 1 15.4644 90.2104 0 
32 1 45.7272 90.0663 0 
33 1 75.0818 89.9524 0 
34 1 106.218 89.8085 0 
35 1 136.211 89.9235 0 
41 1 14.9326 120.003 0 
42 1 45.4343 120.034 0 
43 1 76.1346 119.943 0 
44 1 106.061 120.078 0 
45 1 135.57 120.119 0 
51 1 15.0544 150.119 0 
52 1 45.173 150.009 0 
53 1 75.2961 150.016 0 
54 1 105.181 150.213 0 
55 1 136.589 150.135 0 
101 1 -0.217537 16.9067 0 
102 1 29.9162 14.0334 0 
103 1 60.0123 14.4606 0 
104 1 90.1315 14.4973 0 
105 1 119.984 14.9762 0 
106 1 150.063 15.4664 0 
111 1 -0.352002 48.5048 0 
112 1 29.7925 46.0793 0 
113 1 59.998 45.9864 0 
114 1 90.0576 45.8413 0 
115 1 120.131 45.2023 0 
116 1 150.064 45.0624 0 
121 1 -0.317923 78.6411 0 
122 1 29.7812 76.118 0 
123 1 59.9934 74.8427 0 
124 1 89.956 75.7572 0 
125 1 119.948 74.8617 0 
126 1 150.118 75.9174 0 
131 1 -0.363178 109.29 0 
132 1 29.9759 106.017 0 
133 1 60.2224 106.211 0 
134 1 90.1887 105.601 0 
135 1 120.03 105.279 0 
136 1 150.072 106.279 0 
141 1 -0.344819 139.365 0 
142 1 29.9428 136.774 0 
143 1 60.1136 135.665 0 
144 1 90.0212 136.708 0 
145 1 120.082 136.311 0 
146 1 150.089 135.469 0 
221 2 15 0 0 
222 2 45 0 0 
223 2 75 0 0 
224 2 105 0 0 
225 2 135 0 0 
231 2 15 30 0 
232 2 45 30 0 
233 2 75 30 0 
234 2 105 30 0 
235 2 135 30 0 
241 2 15 60 0 
242 2 45 60 0 
243 2 75 60 0 
244 2 105 60 0 
245 2 135 60 0 
251 2 15 90 0 
252 2 45 90 0 
253 2 75 90 0 
254 2 105 90 0 
255 2 135 90 0 
261 2 15 120 0 
262 2 45 120 0 
263 2 75 120 0 
264 2 105 120 0 
265 2 135 120 0 
271 2 15 150 0 
272 2 45 150 0 
273 2 75 150 0 
274 2 105 150 0 
275 2 135 150 0 
321 2 0 15 0 
322 2 30 15 0 
323 2 60 15 0 
324 2 90 15 0 
325 2 120 15 0 
326 2 150 15 0 
331 2 0 45 0 
332 2 30 45 0 
333 2 60 45 0 
334 2 90 45 0 
335 2 120 45 0 
336 2 150 45 0 
341 2 0 75 0 
342 2 30 75 0 
343 2 60 75 0 
344 2 90 75 0 
345 2 120 75 0 
346 2 150 75 0 
351 2 0 105 0 
352 2 30 105 0 
353 2 60 105 0 
354 2 90 105 0 
355 2 120 105 0 
356 2 150 105 0 
361 2 0 135 0 
362 2 30 135 0 
363 2 60 135 0 
364 2 90 135 0 
365 2 120 135 0 
366 2 150 135 0 
6 1 168.55 -0.490879 0 
7 1 198.289 -0.317197 0 
8 1 227.943 -0.491289 0 
9 1 259.251 -0.341469 0 
10 1 290.136 -0.456812 0 
16 1 166.184 29.877 0 
17 1 196.684 30.0511 0 
18 1 227.386 29.9355 0 
19 1 256.729 30.0179 0 
20 1 288.691 29.953 0 
26 1 166.167 59.8271 0 
27 1 195.864 59.8933 0 
28 1 225.965 60.0184 0 
29 1 256.753 59.9747 0 
30 1 287.524 60.0776 0 
36 1 166.818 89.9803 0 
37 1 196.49 89.9403 0 
38 1 225.417 90.094 0 
39 1 256.32 90.0777 0 
40 1 288.9 90.2084 0 
46 1 165.746 120.068 0 
47 1 195.909 119.923 0 
48 1 226.782 120.127 0 
49 1 255.829 119.965 0 
50 1 287.432 120.118 0 
56 1 165.088 149.948 0 
57 1 196.125 150.074 0 
58 1 225.223 149.966 0 
59 1 256.187 150.132 0 
60 1 288.522 150.005 0 
107 1 180.202 14.4857 0 
108 1 210.074 14.6904 0 
109 1 240.145 14.1119 0 
110 1 270.055 14.7479 0 
117 1 180.163 45.3467 0 
118 1 210.145 44.8238 0 
119 1 239.943 46.0621 0 
120 1 270.176 45.7224 0 
127 1 180.051 75.7704 0 
128 1 210.208 75.6057 0 
129 1 240.038 75.8386 0 
130 1 270.077 77.1823 0 
137 1 180.235 106.251 0 
138 1 209.952 106.446 0 
139 1 240.115 105.068 0 
140 1 270.083 106.103 0 
147 1 180.103 136.383 0 
148 1 210.106 135.86 0 
149 1 240.069 135.894 0 
150 1 269.979 135.484 0 
201 1 300.375 15.2287 0 
202 1 300.529 46.2382 0 
203 1 300.482 75.1913 0 
204 1 300.517 107.041 0 
205 1 300.447 135.978 0 
226 2 165 0 0 
227 2 195 0 0 
228 2 225 0 0 
229 2 255 0 0 
230 2 285 0 0 
236 2 165 30 0 
237 2 195 30 0 
238 2 225 30 0 
239 2 255 30 0 
240 2 285 30 0 
246 2 165 60 0 
247 2 195 60 0 
248 2 225 60 0 
249 2 255 60 0 
250 2 285 60 0 
256 2 165 90 0 
257 2 195 90 0 
258 2 225 90 0 
259 2 255 90 0 
260 2 285 90 0 
266 2 165 120 0 
267 2 195 120 0 
268 2 225 120 0 
269 2 255 120 0 
270 2 285 120 0 
276 2 165 150 0 
277 2 195 150 0 
278 2 225 150 0 
279 2 255 150 0 
280 2 285 150 0 
327 2 180 15 0 
328 2 210 15 0 
329 2 240 15 0 
330 2 270 15 0 
337 2 180 45 0 
338 2 210 45 0 
339 2 240 45 0 
340 2 270 45 0 
347 2 180 75 0 
348 2 210 75 0 
349 2 240 75 0 
350 2 270 75 0 
357 2 180 105 0 
358 2 210 105 0 
359 2 240 105 0 
360 2 270 105 0 
367 2 180 135 0 
368 2 210 135 0 
369 2 240 135 0 
370 2 270 135 0 
421 2 300 15 0 
422 2 300 45 0 
423 2 300 75 0 
424 2 300 105 0 
425 2 300 135 0 
61 1 14.1186 180.052 0 
62 1 45.6787 179.93 0 
63 1 75.4421 180.058 0 
64 1 105.523 180.052 0 
65 1 135.551 180.273 0 
71 1 15.0833 210.157 0 
72 1 45.8945 210.065 0 
73 1 75.8568 210.031 0 
74 1 106.004 210.068 0 
75 1 136.171 210.141 0 
81 1 15.3126 240.035 0 
82 1 44.9911 240.028 0 
83 1 76.0999 240.105 0 
84 1 105.332 240.095 0 
85 1 135.525 239.941 0 
91 1 15.1309 270.21 0 
92 1 46.5171 270.102 0 
93 1 74.8513 270.128 0 
94 1 106.483 270.132 0 
95 1 135.516 270.167 0 
151 1 -0.511342 167.845 0 
152 1 30.0088 166.852 0 
153 1 59.9585 166.024 0 
154 1 89.9499 166.232 0 
155 1 120.066 166.105 0 
156 1 150.06 166.605 0 
161 1 -0.253311 198.809 0 
162 1 30.1223 196.255 0 
163 1 60.236 194.869 0 
164 1 89.9927 196.521 0 
165 1 120.249 196.05 0 
166 1 150.021 196.158 0 
171 1 -0.240853 229.241 0 
172 1 29.9726 226.079 0 
173 1 60.0576 225.952 0 
174 1 90.1073 226.142 0 
175 1 120.025 226.22 0 
176 1 150.141 226.148 0 
181 1 -0.42925 258.655 0 
182 1 30.1779 256.449 0 
183 1 59.9916 254.874 0 
184 1 89.9627 256.707 0 
185 1 120.06 256.56 0 
186 1 149.999 256.121 0 
191 1 -0.245331 290.028 0 
192 1 29.9912 287.664 0 
193 1 60.0776 287.99 0 
194 1 90.0903 286.208 0 
195 1 119.961 289.224 0 
196 1 150.101 287.795 0 
211 1 15.3189 300.473 0 
212 1 45.6916 300.319 0 
213 1 77.5264 300.339 0 
214 1 105.337 300.396 0 
215 1 136.45 300.491 0 
281 2 15 180 0 
282 2 45 180 0 
283 2 75 180 0 
284 2 105 180 0 
285 2 135 180 0 
291 2 15 210 0 
292 2 45 210 0 
293 2 75 210 0 
294 2 105 210 0 
295 2 135 210 0 
301 2 15 240 0 
302 2 45 240 0 
303 2 75 240 0 
304 2 105 240 0 
305 2 135 240 0 
311 2 15 270 0 
312 2 45 270 0 
313 2 75 270 0 
314 2 105 270 0 
315 2 135 270 0 
371 2 0 165 0 
372 2 30 165 0 
373 2 60 165 0 
374 2 90 165 0 
375 2 120 165 0 
376 2 150 165 0 
381 2 0 195 0 
382 2 30 195 0 
383 2 60 195 0 
384 2 90 195 0 
385 2 120 195 0 
386 2 150 195 0 
391 2 0 225 0 
392 2 30 225 0 
393 2 60 225 0 
394 2 90 225 0 
395 2 120 225 0 
396 2 150 225 0 
401 2 0 255 0 
402 2 30 255 0 
403 2 60 255 0 
404 2 90 255 0 
405 2 120 255 0 
406 2 150 255 0 
411 2 0 285 0 
412 2 30 285 0 
413 2 60 285 0 
414 2 90 285 0 
415 2 120 285 0 
416 2 150 285 0 
431 2 15 300 0 
432 2 45 300 0 
433 2 75 300 0 
434 2 105 300 0 
435 2 135 300 0 
66 1 166.311 180.121 0 
67 1 195 180.017 0 
68 1 226.914 179.922 0 
69 1 257.202 180.188 0 
70 1 287.508 180.162 0 
76 1 166.025 209.93 0 
77 1 195.909 210 0 
78 1 226.25 210.035 0 
79 1 256.397 210.023 0 
80 1 288.381 210.357 0 
86 1 165.993 240.094 0 
87 1 196.269 240.01 0 
88 1 226.753 240.212 0 
89 1 257.641 240.119 0 
90 1 286.886 240 0 
96 1 165.871 270.09 0 
97 1 195.844 270.002 0 
98 1 226.76 270.037 0 
99 1 255.659 270.081 0 
100 1 288.344 270.159 0 
157 1 180.034 166.108 0 
158 1 210.017 166.394 0 
159 1 240.107 165.794 0 
160 1 270.073 165.507 0 
167 1 180.099 196.461 0 
168 1 210.198 195.614 0 
169 1 240.039 196.074 0 
170 1 270.26 196.343 0 
177 1 180.09 226.37 0 
178 1 210.139 226.112 0 
179 1 240.158 226.09 0 
180 1 270.192 225.646 0 
187 1 180.094 256.552 0 
188 1 209.989 256.387 0 
189 1 240.15 256.518 0 
190 1 270.122 257.527 0 
197 1 180.087 287.233 0 
198 1 209.908 286.492 0 
199 1 240.051 288.671 0 
200 1 269.979 288.098 0 
206 1 300.435 166.287 0 
207 1 300.482 195.321 0 
208 1 300.321 226.538 0 
209 1 300.476 255.959 0 
210 1 300.388 288.985 0 
216 1 166.552 300.243 0 
217 1 196.48 300.487 0 
218 1 224.7 300.371 0 
219 1 256.108 300.414 0 
220 1 287.341 300.387 0 
286 2 165 180 0 
287 2 195 180 0 
288 2 225 180 0 
289 2 255 180 0 
290 2 285 180 0 
296 2 165 210 0 
297 2 195 210 0 
298 2 225 210 0 
299 2 255 210 0 
300 2 285 210 0 
306 2 165 240 0 
307 2 195 240 0 
308 2 225 240 0 
309 2 255 240 0 
310 2 285 240 0 
316 2 165 270 0 
317 2 195 270 0 
318 2 225 270 0 
319 2 255 270 0 
320 2 285 270 0 
377 2 180 165 0 
378 2 210 165 0 
379 2 240 165 0 
380 2 270 165 0 
387 2 180 195 0 
388 2 210 195 0 
389 2 240 195 0 
390 2 270 195 0 
397 2 180 225 0 
398 2 210 225 0 
399 2 240 225 0 
400 2 270 225 0 
407 2 180 255 0 
408 2 210 255 0 
409 2 240 255 0 
410 2 270 255 0 
417 2 180 285 0 
418 2 210 285 0 
419 2 240 285 0 
420 2 270 285 0 
426 2 300 165 0 
427 2 300 195 0 
428 2 300 225 0 
429 2 300 255 0 
430 2 300 285 0 
436 2 165 300 0 
437 2 195 300 0 
438 2 225 300 0 
439 2 255 300 0 
440 2 285 300 0 
ITEM: TIMESTEP
300
ITEM: NUMBER OF ATOMS
440
ITEM: BOX BOUNDS ss ss pp
-4.7847224736526839e-01 3.0059250021315728e+02
-5.4671883201495619e-01 3.0049591175191642e+02
-2.0000000000000000e-02 2.0000000000000000e-02
ITEM: ATOMS id type x y z 
1 1 13.5288 -0.238469 0 
2 1 47.4665 -0.478108 0 
3 1 78.3387 -0.414265 0 
4 1 107.638 -0.412722 0 
5 1 138.345 -0.388937 0 
11 1 13.9486 30.0352 0 
12 1 45.0158 30.0111 0 
13 1 75.9362 29.932 0 
14 1 105.637 30.0341 0 
15 1 135.235 29.8925 0 
21 1 14.0414 60.2138 0 
22 1 44.1508 60.0724 0 
23 1 74.9381 59.997 0 
24 1 105.389 60.0983 0 
25 1 135.715 59.957 0 
31 1 14.6046 90.1556 0 
32 1 45.4597 90.0598 0 
33 1 74.1188 89.8551 0 
34 1 105.781 90.1079 0 
35 1 136.064 90.0086 0 
41 1 13.8875 120.096 0 
42 1 45.0713 120.059 0 
43 1 75.8198 120.035 0 
44 1 105.571 120.058 0 
45 1 135.488 119.936 0 
51 1 14.3644 149.957 0 
52 1 45.4067 150.11 0 
53 1 75.0056 150.041 0 
54 1 104.663 149.951 0 
55 1 135.723 150.099 0 
101 1 -0.33686 15.7968 0 
102 1 29.9656 12.5641 0 
103 1 60.0343 13.2848 0 
104 1 90.0525 14.5074 0 
105 1 120.166 13.6182 0 
106 1 150.046 14.8875 0 
111 1 -0.554957 47.1396 0 
112 1 29.9916 44.8665 0 
113 1 59.9779 45.2268 0 
114 1 89.9306 45.9716 0 
115 1 120.045 45.4622 0 
116 1 150.042 44.9965 0 
121 1 -0.17119 78.5614 0 
122 1 30.0031 75.9314 0 
123 1 59.8672 74.3318 0 
124 1 89.9583 75.5897 0 
125 1 119.913 74.4952 0 
126 1 150.215 75.4329 0 
131 1 -0.353268 107.904 0 
132 1 30.0264 105.966 0 
133 1 59.986 106.053 0 
134 1 89.9819 105.304 0 
135 1 120.188 105.276 0 
136 1 150.085 105.341 0 
141 1 -0.387349 138.495 0 
142 1 29.9182 135.941 0 
143 1 60.0418 134.977 0 
144 1 89.9477 135.566 0 
145 1 119.943 136.475 0 
146 1 150.084 135.081 0 
221 2 15 0 0 
222 2 45 0 0 
223 2 75 0 0 
224 2 105 0 0 
225 2 135 0 0 
231 2 15 30 0 
232 2 45 30 0 
233 2 75 30 0 
234 2 105 30 0 
235 2 135 30 0 
241 2 15 60 0 
242 2 45 60 0 
243 2 75 60 0 
244 2 105 60 0 
245 2 135 60 0 
251 2 15 90 0 
252 2 45 90 0 
253 2 75 90 0 
254 2 105 90 0 
255 2 135 90 0 
261 2 15 120 0 
262 2 45 120 0 
263 2 75 120 0 
264 2 105 120 0 
265 2 135 120 0 
271 2 15 150 0 
272 2 45 150 0 
273 2 75 150 0 
274 2 105 150 0 
275 2 135 150 0 
321 2 0 15 0 
322 2 30 15 0 
323 2 60 15 0 
324 2 90 15 0 
325 2 120 15 0 
326 2 150 15 0 
331 2 0 45 0 
332 2 30 45 0 
333 2 60 45 0 
334 2 90 45 0 
335 2 120 45 0 
336 2 150 45 0 
341 2 0 75 0 
342 2 30 75 0 
343 2 60 75 0 
344 2 90 75 0 
345 2 120 75 0 
346 2 150 75 0 
351 2 0 105 0 
352 2 30 105 0 
353 2 60 105 0 
354 2 90 105 0 
355 2 120 105 0 
356 2 150 105 0 
361 2 0 135 0 
362 2 30 135 0 
363 2 60 135 0 
364 2 90 135 0 
365 2 120 135 0 
366 2 150 135 0 
6 1 168.07 -0.283328 0 
7 1 197.128 -0.483257 0 
8 1 226.681 -0.464466 0 
9 1 259.171 -0.439835 0 
10 1 289.064 -0.319332 0 
16 1 165.092 29.9747 0 
17 1 196.523 29.8453 0 
18 1 226.129 29.884 0 
19 1 256.046 29.9648 0 
20 1 288.376 29.7764 0 
26 1 165.991 60.1163 0 
27 1 195.234 59.9953 0 
28 1 226.19 60.0924 0 
29 1 255.733 60.0774 0 
30 1 286.558 60.0918 0 
36 1 166.592 89.7575 0 
37 1 196.157 90.1745 0 
38 1 224.504 90.0451 0 
39 1 256.24 90.0917 0 
40 1 287.867 90.0035 0 
46 1 165.934 119.996 0 
47 1 195.543 120.036 0 
48 1 225.748 120.042 0 
49 1 255.466 119.818 0 
50 1 287.493 119.967 0 
56 1 164.895 149.998 0 
57 1 196.153 150.146 0 
58 1 225.814 149.923 0 
59 1 256.327 149.903 0 
60 1 287.81 150.066 0 
107 1 180.055 13.7279 0 
108 1 210.087 13.8836 0 
109 1 240.14 12.7207 0 
110 1 270.164 15.025 0 
117 1 180.027 44.4124 0 
118 1 209.99 45.3204 0 
119 1 240.061 45.3331 0 
120 1 270.087 45.3729 0 
127 1 180.044 75.1392 0 
128 1 210.008 74.5035 0 
129 1 240.064 75.7786 0 
130 1 270.146 75.5254 0 
137 1 180.129 105.279 0 
138 1 210.168 104.987 0 
139 1 240.001 104.556 0 
140 1 270.128 105.549 0 
147 1 180.034 135.586 0 
148 1 210.112 135.422 0 
149 1 240.175 135.05 0 
150 1 270.031 134.888 0 
201 1 300.362 14.9159 0 
202 1 300.249 45.7298 0 
203 1 300.411 74.3377 0 
204 1 300.502 105.841 0 
205 1 300.441 135.671 0 
226 2 165 0 0 
227 2 195 0 0 
228 2 225 0 0 
229 2 255 0 0 
230 2 285 0 0 
236 2 165 30 0 
237 2 195 30 0 
238 2 225 30 0 
239 2 255 30 0 
240 2 285 30 0 
246 2 165 60 0 
247 2 195 60 0 
248 2 225 60 0 
249 2 255 60 0 
250 2 285 60 0 
256 2 165 90 0 
257 2 195 90 0 
258 2 225 90 0 
259 2 255 90 0 
260 2 285 90 0 
266 2 165 120 0 