This is the initial atom setup of LAMMPSTest 
2420 atoms
11 atom types
2200 bonds
2200 bond types
-30.00 330.00 xlo xhi 
-30.00 330.00 ylo yhi 
-1.50 1.50 zlo zhi 

Atoms

     1	11	150.00	285.00	0.000000	10.30	0.0017	0.0	    0	   10	    0	0.0	1
     2	11	240.00	165.00	0.000000	10.30	0.0017	0.0	    0	   10	    0	0.0	2
     3	11	75.00	150.00	0.000000	10.30	0.0017	0.0	   10	    0	    0	0.0	3
     4	11	60.00	45.00	0.000000	10.30	0.0017	0.0	    0	  -10	    0	0.0	4
     5	11	180.00	285.00	0.000000	10.30	0.0017	0.0	    0	   10	    0	0.0	5
     6	11	105.00	150.00	0.000000	10.30	0.0017	0.0	  -10	    0	    0	0.0	6
     7	11	90.00	15.00	0.000000	10.30	0.0017	0.0	    0	   10	    0	0.0	7
     8	11	 0.00	255.00	0.000000	10.30	0.0017	0.0	    0	   10	    0	0.0	8
     9	11	75.00	60.00	0.000000	10.30	0.0017	0.0	   10	    0	    0	0.0	9
    10	11	240.00	225.00	0.000000	10.30	0.0017	0.0	    0	   10	    0	0.0	10
    11	11	255.00	270.00	0.000000	10.30	0.0017	0.0	  -10	    0	    0	0.0	11
    12	11	120.00	255.00	0.000000	10.30	0.0017	0.0	    0	  -10	    0	0.0	12
    13	11	60.00	225.00	0.000000	10.30	0.0017	0.0	    0	   10	    0	0.0	13
    14	11	225.00	 0.00	0.000000	10.30	0.0017	0.0	   10	    0	    0	0.0	14
    15	11	90.00	225.00	0.000000	10.30	0.0017	0.0	    0	  -10	    0	0.0	15
    16	11	120.00	195.00	0.000000	10.30	0.0017	0.0	    0	   10	    0	0.0	16
    17	11	 0.00	225.00	0.000000	10.30	0.0017	0.0	    0	   10	    0	0.0	17
    18	11	195.00	210.00	0.000000	10.30	0.0017	0.0	   10	    0	    0	0.0	18
    19	11	105.00	30.00	0.000000	10.30	0.0017	0.0	   10	    0	    0	0.0	19
    20	11	150.00	195.00	0.000000	10.30	0.0017	0.0	    0	   10	    0	0.0	20
    21	11	210.00	195.00	0.000000	10.30	0.0017	0.0	    0	   10	    0	0.0	21
    22	11	165.00	300.00	0.000000	10.30	0.0017	0.0	  -10	    0	    0	0.0	22
    23	11	270.00	15.00	0.000000	10.30	0.0017	0.0	    0	  -10	    0	0.0	23
    24	11	300.00	195.00	0.000000	10.30	0.0017	0.0	    0	   10	    0	0.0	24
    25	11	60.00	195.00	0.000000	10.30	0.0017	0.0	    0	   10	    0	0.0	25
    26	11	15.00	240.00	0.000000	10.30	0.0017	0.0	  -10	    0	    0	0.0	26
    27	11	210.00	105.00	0.000000	10.30	0.0017	0.0	    0	  -10	    0	0.0	27
    28	11	300.00	75.00	0.000000	10.30	0.0017	0.0	    0	  -10	    0	0.0	28
    29	11	45.00	300.00	0.000000	10.30	0.0017	0.0	   10	    0	    0	0.0	29
    30	11	270.00	285.00	0.000000	10.30	0.0017	0.0	    0	   10	    0	0.0	30
    31	11	150.00	255.00	0.000000	10.30	0.0017	0.0	    0	  -10	    0	0.0	31
    32	11	225.00	180.00	0.000000	10.30	0.0017	0.0	  -10	    0	    0	0.0	32
    33	11	210.00	15.00	0.000000	10.30	0.0017	0.0	    0	  -10	    0	0.0	33
    34	11	90.00	165.00	0.000000	10.30	0.0017	0.0	    0	   10	    0	0.0	34
    35	11	90.00	255.00	0.000000	10.30	0.0017	0.0	    0	   10	    0	0.0	35
    36	11	105.00	 0.00	0.000000	10.30	0.0017	0.0	  -10	    0	    0	0.0	36
    37	11	60.00	75.00	0.000000	10.30	0.0017	0.0	    0	  -10	    0	0.0	37
    38	11	300.00	135.00	0.000000	10.30	0.0017	0.0	    0	   10	    0	0.0	38
    39	11	135.00	120.00	0.000000	10.30	0.0017	0.0	  -10	    0	    0	0.0	39
    40	11	270.00	255.00	0.000000	10.30	0.0017	0.0	    0	   10	    0	0.0	40
    41	11	285.00	30.00	0.000000	10.30	0.0017	0.0	  -10	    0	    0	0.0	41
    42	11	165.00	90.00	0.000000	10.30	0.0017	0.0	   10	    0	    0	0.0	42
    43	11	90.00	195.00	0.000000	10.30	0.0017	0.0	    0	   10	    0	0.0	43
    44	11	90.00	135.00	0.000000	10.30	0.0017	0.0	    0	   10	    0	0.0	44
    45	11	105.00	300.00	0.000000	10.30	0.0017	0.0	  -10	    0	    0	0.0	45
    46	11	150.00	165.00	0.000000	10.30	0.0017	0.0	    0	   10	    0	0.0	46
    47	11	180.00	135.00	0.000000	10.30	0.0017	0.0	    0	   10	    0	0.0	47
    48	11	105.00	270.00	0.000000	10.30	0.0017	0.0	  -10	    0	    0	0.0	48
    49	11	210.00	225.00	0.000000	10.30	0.0017	0.0	    0	  -10	    0	0.0	49
    50	11	 0.00	285.00	0.000000	10.30	0.0017	0.0	    0	   10	    0	0.0	50
    51	11	45.00	90.00	0.000000	10.30	0.0017	0.0	   10	    0	    0	0.0	51
    52	11	270.00	135.00	0.000000	10.30	0.0017	0.0	    0	   10	    0	0.0	52
    53	11	120.00	225.00	0.000000	10.30	0.0017	0.0	    0	   10	    0	0.0	53
    54	11	165.00	120.00	0.000000	10.30	0.0017	0.0	   10	    0	    0	0.0	54
    55	11	255.00	150.00	0.000000	10.30	0.0017	0.0	   10	    0	    0	0.0	55
    56	11	210.00	135.00	0.000000	10.30	0.0017	0.0	    0	  -10	    0	0.0	56
    57	11	150.00	15.00	0.000000	10.30	0.0017	0.0	    0	   10	    0	0.0	57
    58	11	150.00	135.00	0.000000	10.30	0.0017	0.0	    0	  -10	    0	0.0	58
    59	11	240.00	255.00	0.000000	10.30	0.0017	0.0	    0	  -10	    0	0.0	59
    60	11	60.00	105.00	0.000000	10.30	0.0017	0.0	    0	   10	    0	0.0	60
    61	11	 0.00	105.00	0.000000	10.30	0.0017	0.0	    0	  -10	    0	0.0	61
    62	11	225.00	240.00	0.000000	10.30	0.0017	0.0	   10	    0	    0	0.0	62
    63	11	105.00	90.00	0.000000	10.30	0.0017	0.0	   10	    0	    0	0.0	63
    64	11	300.00	165.00	0.000000	10.30	0.0017	0.0	    0	  -10	    0	0.0	64
    65	11	210.00	45.00	0.000000	10.30	0.0017	0.0	    0	   10	    0	0.0	65
    66	11	30.00	285.00	0.000000	10.30	0.0017	0.0	    0	  -10	    0	0.0	66
    67	11	135.00	 0.00	0.000000	10.30	0.0017	0.0	   10	    0	    0	0.0	67
    68	11	285.00	240.00	0.000000	10.30	0.0017	0.0	   10	    0	    0	0.0	68
    69	11	195.00	120.00	0.000000	10.30	0.0017	0.0	   10	    0	    0	0.0	69
    70	11	120.00	45.00	0.000000	10.30	0.0017	0.0	    0	   10	    0	0.0	70
    71	11	225.00	210.00	0.000000	10.30	0.0017	0.0	  -10	    0	    0	0.0	71
    72	11	120.00	75.00	0.000000	10.30	0.0017	0.0	    0	   10	    0	0.0	72
    73	11	180.00	15.00	0.000000	10.30	0.0017	0.0	    0	  -10	    0	0.0	73
    74	11	45.00	60.00	0.000000	10.30	0.0017	0.0	  -10	    0	    0	0.0	74
    75	11	165.00	 0.00	0.000000	10.30	0.0017	0.0	   10	    0	    0	0.0	75
    76	11	90.00	285.00	0.000000	10.30	0.0017	0.0	    0	   10	    0	0.0	76
    77	11	300.00	255.00	0.000000	10.30	0.0017	0.0	    0	  -10	    0	0.0	77
    78	11	90.00	45.00	0.000000	10.30	0.0017	0.0	    0	   10	    0	0.0	78
    79	11	300.00	15.00	0.000000	10.30	0.0017	0.0	    0	   10	    0	0.0	79
    80	11	225.00	150.00	0.000000	10.30	0.0017	0.0	   10	    0	    0	0.0	80
    81	11	45.00	 0.00	0.000000	10.30	0.0017	0.0	   10	    0	    0	0.0	81
    82	11	240.00	135.00	0.000000	10.30	0.0017	0.0	    0	  -10	    0	0.0	82
    83	11	90.00	105.00	0.000000	10.30	0.0017	0.0	    0	  -10	    0	0.0	83
    84	11	270.00	195.00	0.000000	10.30	0.0017	0.0	    0	   10	    0	0.0	84
    85	11	270.00	225.00	0.000000	10.30	0.0017	0.0	    0	  -10	    0	0.0	85
    86	11	135.00	180.00	0.000000	10.30	0.0017	0.0	  -10	    0	    0	0.0	86
    87	11	285.00	270.00	0.000000	10.30	0.0017	0.0	   10	    0	    0	0.0	87
    88	11	300.00	105.00	0.000000	10.30	0.0017	0.0	    0	  -10	    0	0.0	88
    89	11	30.00	225.00	0.000000	10.30	0.0017	0.0	    0	   10	    0	0.0	89
    90	11	180.00	195.00	0.000000	10.30	0.0017	0.0	    0	   10	    0	0.0	90
    91	11	90.00	75.00	0.000000	10.30	0.0017	0.0	    0	   10	    0	0.0	91
    92	11	135.00	60.00	0.000000	10.30	0.0017	0.0	   10	    0	    0	0.0	92
    93	11	270.00	105.00	0.000000	10.30	0.0017	0.0	    0	  -10	    0	0.0	93
    94	11	60.00	165.00	0.000000	10.30	0.0017	0.0	    0	   10	    0	0.0	94
    95	11	210.00	75.00	0.000000	10.30	0.0017	0.0	    0	  -10	    0	0.0	95
    96	11	120.00	285.00	0.000000	10.30	0.0017	0.0	    0	   10	    0	0.0	96
    97	11	255.00	180.00	0.000000	10.30	0.0017	0.0	   10	    0	    0	0.0	97
    98	11	240.00	75.00	0.000000	10.30	0.0017	0.0	    0	  -10	    0	0.0	98
    99	11	30.00	75.00	0.000000	10.30	0.0017	0.0	    0	   10	    0	0.0	99
   100	11	30.00	15.00	0.000000	10.30	0.0017	0.0	    0	  -10	    0	0.0	100
   101	11	45.00	30.00	0.000000	10.30	0.0017	0.0	   10	    0	    0	0.0	101
   102	11	285.00	 0.00	0.000000	10.30	0.0017	0.0	   10	    0	    0	0.0	102
   103	11	30.00	165.00	0.000000	10.30	0.0017	0.0	    0	  -10	    0	0.0	103
   104	11	225.00	30.00	0.000000	10.30	0.0017	0.0	   10	    0	    0	0.0	104
   105	11	105.00	120.00	0.000000	10.30	0.0017	0.0	   10	    0	    0	0.0	105
   106	11	135.00	30.00	0.000000	10.30	0.0017	0.0	   10	    0	    0	0.0	106
   107	11	135.00	150.00	0.000000	10.30	0.0017	0.0	  -10	    0	    0	0.0	107
   108	11	180.00	165.00	0.000000	10.30	0.0017	0.0	    0	   10	    0	0.0	108
   109	11	15.00	270.00	0.000000	10.30	0.0017	0.0	  -10	    0	    0	0.0	109
   110	11	135.00	300.00	0.000000	10.30	0.0017	0.0	  -10	    0	    0	0.0	110
   111	11	 0.00	195.00	0.000000	10.30	0.0017	0.0	    0	  -10	    0	0.0	111
   112	11	225.00	120.00	0.000000	10.30	0.0017	0.0	  -10	    0	    0	0.0	112
   113	11	240.00	195.00	0.000000	10.30	0.0017	0.0	    0	   10	    0	0.0	113
   114	11	165.00	60.00	0.000000	10.30	0.0017	0.0	  -10	    0	    0	0.0	114
   115	11	285.00	90.00	0.000000	10.30	0.0017	0.0	  -10	    0	    0	0.0	115
   116	11	180.00	255.00	0.000000	10.30	0.0017	0.0	    0	   10	    0	0.0	116
   117	11	45.00	210.00	0.000000	10.30	0.0017	0.0	   10	    0	    0	0.0	117
   118	11	 0.00	75.00	0.000000	10.30	0.0017	0.0	    0	   10	    0	0.0	118
   119	11	45.00	180.00	0.000000	10.30	0.0017	0.0	  -10	    0	    0	0.0	119
   120	11	285.00	120.00	0.000000	10.30	0.0017	0.0	  -10	    0	    0	0.0	120
   121	11	240.00	15.00	0.000000	10.30	0.0017	0.0	    0	   10	    0	0.0	121
   122	11	45.00	120.00	0.000000	10.30	0.0017	0.0	  -10	    0	    0	0.0	122
   123	11	30.00	195.00	0.000000	10.30	0.0017	0.0	    0	   10	    0	0.0	123
   124	11	150.00	225.00	0.000000	10.30	0.0017	0.0	    0	  -10	    0	0.0	124
   125	11	60.00	135.00	0.000000	10.30	0.0017	0.0	    0	  -10	    0	0.0	125
   126	11	45.00	150.00	0.000000	10.30	0.0017	0.0	  -10	    0	    0	0.0	126
   127	11	240.00	45.00	0.000000	10.30	0.0017	0.0	    0	   10	    0	0.0	127
   128	11	255.00	240.00	0.000000	10.30	0.0017	0.0	   10	    0	    0	0.0	128
   129	11	225.00	300.00	0.000000	10.30	0.0017	0.0	   10	    0	    0	0.0	129
   130	11	225.00	90.00	0.000000	10.30	0.0017	0.0	  -10	    0	    0	0.0	130
   131	11	195.00	90.00	0.000000	10.30	0.0017	0.0	  -10	    0	    0	0.0	131
   132	11	105.00	240.00	0.000000	10.30	0.0017	0.0	  -10	    0	    0	0.0	132
   133	11	240.00	285.00	0.000000	10.30	0.0017	0.0	    0	   10	    0	0.0	133
   134	11	30.00	255.00	0.000000	10.30	0.0017	0.0	    0	  -10	    0	0.0	134
   135	11	120.00	105.00	0.000000	10.30	0.0017	0.0	    0	   10	    0	0.0	135
   136	11	 0.00	165.00	0.000000	10.30	0.0017	0.0	    0	  -10	    0	0.0	136
   137	11	300.00	285.00	0.000000	10.30	0.0017	0.0	    0	   10	    0	0.0	137
   138	11	285.00	60.00	0.000000	10.30	0.0017	0.0	   10	    0	    0	0.0	138
   139	11	15.00	120.00	0.000000	10.30	0.0017	0.0	   10	    0	    0	0.0	139
   140	11	180.00	225.00	0.000000	10.30	0.0017	0.0	    0	   10	    0	0.0	140
   141	11	105.00	210.00	0.000000	10.30	0.0017	0.0	  -10	    0	    0	0.0	141
   142	11	120.00	165.00	0.000000	10.30	0.0017	0.0	    0	   10	    0	0.0	142
   143	11	210.00	285.00	0.000000	10.30	0.0017	0.0	    0	  -10	    0	0.0	143
   144	11	15.00	210.00	0.000000	10.30	0.0017	0.0	   10	    0	    0	0.0	144
   145	11	195.00	270.00	0.000000	10.30	0.0017	0.0	   10	    0	    0	0.0	145
   146	11	165.00	240.00	0.000000	10.30	0.0017	0.0	   10	    0	    0	0.0	146
   147	11	270.00	75.00	0.000000	10.30	0.0017	0.0	    0	  -10	    0	0.0	147
   148	11	75.00	90.00	0.000000	10.30	0.0017	0.0	   10	    0	    0	0.0	148
   149	11	150.00	45.00	0.000000	10.30	0.0017	0.0	    0	  -10	    0	0.0	149
   150	11	45.00	270.00	0.000000	10.30	0.0017	0.0	   10	    0	    0	0.0	150
   151	11	15.00	60.00	0.000000	10.30	0.0017	0.0	  -10	    0	    0	0.0	151
   152	11	75.00	 0.00	0.000000	10.30	0.0017	0.0	   10	    0	    0	0.0	152
   153	11	135.00	210.00	0.000000	10.30	0.0017	0.0	   10	    0	    0	0.0	153
   154	11	 0.00	45.00	0.000000	10.30	0.0017	0.0	    0	   10	    0	0.0	154
   155	11	255.00	30.00	0.000000	10.30	0.0017	0.0	  -10	    0	    0	0.0	155
   156	11	150.00	75.00	0.000000	10.30	0.0017	0.0	    0	   10	    0	0.0	156
   157	11	120.00	15.00	0.000000	10.30	0.0017	0.0	    0	   10	    0	0.0	157
   158	11	270.00	165.00	0.000000	10.30	0.0017	0.0	    0	   10	    0	0.0	158
   159	11	120.00	135.00	0.000000	10.30	0.0017	0.0	    0	   10	    0	0.0	159
   160	11	195.00	300.00	0.000000	10.30	0.0017	0.0	  -10	    0	    0	0.0	160
   161	11	15.00	180.00	0.000000	10.30	0.0017	0.0	  -10	    0	    0	0.0	161
   162	11	150.00	105.00	0.000000	10.30	0.0017	0.0	    0	  -10	    0	0.0	162
   163	11	60.00	285.00	0.000000	10.30	0.0017	0.0	    0	  -10	    0	0.0	163
   164	11	105.00	60.00	0.000000	10.30	0.0017	0.0	   10	    0	    0	0.0	164
   165	11	 0.00	15.00	0.000000	10.30	0.0017	0.0	    0	  -10	    0	0.0	165
   166	11	255.00	 0.00	0.000000	10.30	0.0017	0.0	   10	    0	    0	0.0	166
   167	11	180.00	75.00	0.000000	10.30	0.0017	0.0	    0	   10	    0	0.0	167
   168	11	285.00	150.00	0.000000	10.30	0.0017	0.0	   10	    0	    0	0.0	168
   169	11	255.00	120.00	0.000000	10.30	0.0017	0.0	   10	    0	    0	0.0	169
   170	11	195.00	240.00	0.000000	10.30	0.0017	0.0	  -10	    0	    0	0.0	170
   171	11	30.00	45.00	0.000000	10.30	0.0017	0.0	    0	  -10	    0	0.0	171
   172	11	165.00	150.00	0.000000	10.30	0.0017	0.0	   10	    0	    0	0.0	172
   173	11	180.00	45.00	0.000000	10.30	0.0017	0.0	    0	  -10	    0	0.0	173
   174	11	285.00	210.00	0.000000	10.30	0.0017	0.0	  -10	    0	    0	0.0	174
   175	11	75.00	180.00	0.000000	10.30	0.0017	0.0	   10	    0	    0	0.0	175
   176	11	195.00	180.00	0.000000	10.30	0.0017	0.0	  -10	    0	    0	0.0	176
   177	11	210.00	255.00	0.000000	10.30	0.0017	0.0	    0	   10	    0	0.0	177
   178	11	285.00	180.00	0.000000	10.30	0.0017	0.0	   10	    0	    0	0.0	178
   179	11	15.00	150.00	0.000000	10.30	0.0017	0.0	   10	    0	    0	0.0	179
   180	11	165.00	270.00	0.000000	10.30	0.0017	0.0	  -10	    0	    0	0.0	180
   181	11	60.00	255.00	0.000000	10.30	0.0017	0.0	    0	   10	    0	0.0	181
   182	11	75.00	270.00	0.000000	10.30	0.0017	0.0	   10	    0	    0	0.0	182
   183	11	135.00	270.00	0.000000	10.30	0.0017	0.0	   10	    0	    0	0.0	183
   184	11	285.00	300.00	0.000000	10.30	0.0017	0.0	  -10	    0	    0	0.0	184
   185	11	255.00	210.00	0.000000	10.30	0.0017	0.0	  -10	    0	    0	0.0	185
   186	11	60.00	15.00	0.000000	10.30	0.0017	0.0	    0	   10	    0	0.0	186
   187	11	45.00	240.00	0.000000	10.30	0.0017	0.0	  -10	    0	    0	0.0	187
   188	11	225.00	60.00	0.000000	10.30	0.0017	0.0	   10	    0	    0	0.0	188
   189	11	255.00	60.00	0.000000	10.30	0.0017	0.0	  -10	    0	    0	0.0	189
   190	11	135.00	90.00	0.000000	10.30	0.0017	0.0	  -10	    0	    0	0.0	190
   191	11	105.00	180.00	0.000000	10.30	0.0017	0.0	  -10	    0	    0	0.0	191
   192	11	75.00	30.00	0.000000	10.30	0.0017	0.0	  -10	    0	    0	0.0	192
   193	11	 0.00	135.00	0.000000	10.30	0.0017	0.0	    0	   10	    0	0.0	193
   194	11	240.00	105.00	0.000000	10.30	0.0017	0.0	    0	   10	    0	0.0	194
   195	11	195.00	150.00	0.000000	10.30	0.0017	0.0	  -10	    0	    0	0.0	195
   196	11	75.00	120.00	0.000000	10.30	0.0017	0.0	   10	    0	    0	0.0	196
   197	11	255.00	90.00	0.000000	10.30	0.0017	0.0	  -10	    0	    0	0.0	197
   198	11	15.00	30.00	0.000000	10.30	0.0017	0.0	   10	    0	    0	0.0	198
   199	11	30.00	135.00	0.000000	10.30	0.0017	0.0	    0	  -10	    0	0.0	199
   200	11	30.00	105.00	0.000000	10.30	0.0017	0.0	    0	   10	    0	0.0	200
   201	11	195.00	60.00	0.000000	10.30	0.0017	0.0	   10	    0	    0	0.0	201
   202	11	180.00	105.00	0.000000	10.30	0.0017	0.0	    0	   10	    0	0.0	202
   203	11	75.00	210.00	0.000000	10.30	0.0017	0.0	  -10	    0	    0	0.0	203
   204	11	165.00	180.00	0.000000	10.30	0.0017	0.0	  -10	    0	    0	0.0	204
   205	11	165.00	30.00	0.000000	10.30	0.0017	0.0	  -10	    0	    0	0.0	205
   206	11	255.00	300.00	0.000000	10.30	0.0017	0.0	   10	    0	    0	0.0	206
   207	11	225.00	270.00	0.000000	10.30	0.0017	0.0	  -10	    0	    0	0.0	207
   208	11	195.00	30.00	0.000000	10.30	0.0017	0.0	   10	    0	    0	0.0	208
   209	11	75.00	240.00	0.000000	10.30	0.0017	0.0	  -10	    0	    0	0.0	209
   210	11	15.00	 0.00	0.000000	10.30	0.0017	0.0	  -10	    0	    0	0.0	210
   211	11	15.00	90.00	0.000000	10.30	0.0017	0.0	   10	    0	    0	0.0	211
   212	11	270.00	45.00	0.000000	10.30	0.0017	0.0	    0	   10	    0	0.0	212
   213	11	75.00	300.00	0.000000	10.30	0.0017	0.0	   10	    0	    0	0.0	213
   214	11	195.00	 0.00	0.000000	10.30	0.0017	0.0	   10	    0	    0	0.0	214
   215	11	135.00	240.00	0.000000	10.30	0.0017	0.0	  -10	    0	    0	0.0	215
   216	11	165.00	210.00	0.000000	10.30	0.0017	0.0	   10	    0	    0	0.0	216
   217	11	300.00	45.00	0.000000	10.30	0.0017	0.0	    0	  -10	    0	0.0	217
   218	11	210.00	165.00	0.000000	10.30	0.0017	0.0	    0	  -10	    0	0.0	218
   219	11	15.00	300.00	0.000000	10.30	0.0017	0.0	  -10	    0	    0	0.0	219
   220	11	300.00	225.00	0.000000	10.30	0.0017	0.0	    0	  -10	    0	0.0	220
   221	1	150.00	290.00	-0.002531	10.300000	0.001678	0.0	0.0	0.0	0.0	0.0576	1
   222	1	240.00	170.00	-0.011614	10.300000	0.001678	0.0	0.0	0.0	0.0	0.0576	2
   223	1	70.00	150.00	0.016295	10.300000	0.001678	0.0	0.0	0.0	0.0	0.0576	3
   224	1	60.00	40.00	-0.007781	10.300000	0.001678	0.0	0.0	0.0	0.0	0.0576	4
   225	1	180.00	290.00	0.005269	10.300000	0.001678	0.0	0.0	0.0	0.0	0.0576	5
   226	1	110.00	150.00	0.002827	10.300000	0.001678	0.0	0.0	0.0	0.0	0.0576	6
   227	1	90.00	20.00	-0.007646	10.300000	0.001678	0.0	0.0	0.0	0.0	0.0576	7
   228	1	 0.00	250.00	0.012436	10.300000	0.001678	0.0	0.0	0.0	0.0	0.0576	8
   229	1	70.00	60.00	-0.012517	10.300000	0.001678	0.0	0.0	0.0	0.0	0.0576	9
   230	1	240.00	230.00	0.000900	10.300000	0.001678	0.0	0.0	0.0	0.0	0.0576	10
   231	1	260.00	270.00	-0.010572	10.300000	0.001678	0.0	0.0	0.0	0.0	0.0576	11
   232	1	120.00	260.00	-0.011647	10.300000	0.001678	0.0	0.0	0.0	0.0	0.0576	12
   233	1	60.00	230.00	-0.004250	10.300000	0.001678	0.0	0.0	0.0	0.0	0.0576	13
   234	1	230.00	 0.00	-0.013791	10.300000	0.001678	0.0	0.0	0.0	0.0	0.0576	14
   235	1	90.00	220.00	0.005475	10.300000	0.001678	0.0	0.0	0.0	0.0	0.0576	15
   236	1	120.00	190.00	-0.012601	10.300000	0.001678	0.0	0.0	0.0	0.0	0.0576	16
   237	1	 0.00	220.00	-0.001215	10.300000	0.001678	0.0	0.0	0.0	0.0	0.0576	17
   238	1	200.00	210.00	0.007625	10.300000	0.001678	0.0	0.0	0.0	0.0	0.0576	18
   239	1	100.00	30.00	0.000803	10.300000	0.001678	0.0	0.0	0.0	0.0	0.0576	19
   240	1	150.00	200.00	-0.002016	10.300000	0.001678	0.0	0.0	0.0	0.0	0.0576	20
   241	1	210.00	200.00	-0.008041	10.300000	0.001678	0.0	0.0	0.0	0.0	0.0576	21
   242	1	160.00	300.00	0.004612	10.300000	0.001678	0.0	0.0	0.0	0.0	0.0576	22
   243	1	270.00	10.00	0.001893	10.300000	0.001678	0.0	0.0	0.0	0.0	0.0576	23
   244	1	300.00	200.00	0.012194	10.300000	0.001678	0.0	0.0	0.0	0.0	0.0576	24
   245	1	60.00	190.00	0.002764	10.300000	0.001678	0.0	0.0	0.0	0.0	0.0576	25
   246	1	10.00	240.00	0.017416	10.300000	0.001678	0.0	0.0	0.0	0.0	0.0576	26
   247	1	210.00	100.00	0.002220	10.300000	0.001678	0.0	0.0	0.0	0.0	0.0576	27
   248	1	300.00	80.00	-0.002251	10.300000	0.001678	0.0	0.0	0.0	0.0	0.0576	28
   249	1	40.00	300.00	-0.008324	10.300000	0.001678	0.0	0.0	0.0	0.0	0.0576	29
   250	1	270.00	280.00	0.004204	10.300000	0.001678	0.0	0.0	0.0	0.0	0.0576	30
   251	1	150.00	250.00	-0.006790	10.300000	0.001678	0.0	0.0	0.0	0.0	0.0576	31
   252	1	230.00	180.00	-0.001410	10.300000	0.001678	0.0	0.0	0.0	0.0	0.0576	32
   253	1	210.00	10.00	0.001244	10.300000	0.001678	0.0	0.0	0.0	0.0	0.0576	33
   254	1	90.00	170.00	0.002856	10.300000	0.001678	0.0	0.0	0.0	0.0	0.0576	34
   255	1	90.00	250.00	0.014176	10.300000	0.001678	0.0	0.0	0.0	0.0	0.0576	35
   256	1	110.00	 0.00	0.005732	10.300000	0.001678	0.0	0.0	0.0	0.0	0.0576	36
   257	1	60.00	70.00	-0.016378	10.300000	0.001678	0.0	0.0	0.0	0.0	0.0576	37
   258	1	300.00	140.00	-0.018727	10.300000	0.001678	0.0	0.0	0.0	0.0	0.0576	38
   259	1	140.00	120.00	0.005740	10.300000	0.001678	0.0	0.0	0.0	0.0	0.0576	39
   260	1	270.00	250.00	0.005601	10.300000	0.001678	0.0	0.0	0.0	0.0	0.0576	40
   261	1	290.00	30.00	0.015792	10.300000	0.001678	0.0	0.0	0.0	0.0	0.0576	41
   262	1	160.00	90.00	-0.006290	10.300000	0.001678	0.0	0.0	0.0	0.0	0.0576	42
   263	1	90.00	190.00	0.011361	10.300000	0.001678	0.0	0.0	0.0	0.0	0.0576	43
   264	1	90.00	140.00	0.015312	10.300000	0.001678	0.0	0.0	0.0	0.0	0.0576	44
   265	1	100.00	300.00	0.004450	10.300000	0.001678	0.0	0.0	0.0	0.0	0.0576	45
   266	1	150.00	170.00	-0.010801	10.300000	0.001678	0.0	0.0	0.0	0.0	0.0576	46
   267	1	180.00	130.00	-0.004466	10.300000	0.001678	0.0	0.0	0.0	0.0	0.0576	47
   268	1	100.00	270.00	-0.010862	10.300000	0.001678	0.0	0.0	0.0	0.0	0.0576	48
   269	1	210.00	230.00	0.010638	10.300000	0.001678	0.0	0.0	0.0	0.0	0.0576	49
   270	1	 0.00	280.00	0.017603	10.300000	0.001678	0.0	0.0	0.0	0.0	0.0576	50
   271	1	40.00	90.00	0.004804	10.300000	0.001678	0.0	0.0	0.0	0.0	0.0576	51
   272	1	270.00	140.00	-0.018695	10.300000	0.001678	0.0	0.0	0.0	0.0	0.0576	52
   273	1	120.00	230.00	-0.003557	10.300000	0.001678	0.0	0.0	0.0	0.0	0.0576	53
   274	1	170.00	120.00	0.003687	10.300000	0.001678	0.0	0.0	0.0	0.0	0.0576	54
   275	1	250.00	150.00	-0.010346	10.300000	0.001678	0.0	0.0	0.0	0.0	0.0576	55
   276	1	210.00	130.00	0.009517	10.300000	0.001678	0.0	0.0	0.0	0.0	0.0576	56
   277	1	150.00	20.00	-0.011937	10.300000	0.001678	0.0	0.0	0.0	0.0	0.0576	57
   278	1	150.00	140.00	-0.003166	10.300000	0.001678	0.0	0.0	0.0	0.0	0.0576	58
   279	1	240.00	260.00	-0.013089	10.300000	0.001678	0.0	0.0	0.0	0.0	0.0576	59
   280	1	60.00	110.00	0.005299	10.300000	0.001678	0.0	0.0	0.0	0.0	0.0576	60
   281	1	 0.00	100.00	-0.007811	10.300000	0.001678	0.0	0.0	0.0	0.0	0.0576	61
   282	1	230.00	240.00	-0.011198	10.300000	0.001678	0.0	0.0	0.0	0.0	0.0576	62
   283	1	100.00	90.00	-0.002746	10.300000	0.001678	0.0	0.0	0.0	0.0	0.0576	63
   284	1	300.00	160.00	-0.006621	10.300000	0.001678	0.0	0.0	0.0	0.0	0.0576	64
   285	1	210.00	50.00	0.020546	10.300000	0.001678	0.0	0.0	0.0	0.0	0.0576	65
   286	1	30.00	280.00	-0.000314	10.300000	0.001678	0.0	0.0	0.0	0.0	0.0576	66
   287	1	140.00	 0.00	-0.000581	10.300000	0.001678	0.0	0.0	0.0	0.0	0.0576	67
   288	1	280.00	240.00	-0.002902	10.300000	0.001678	0.0	0.0	0.0	0.0	0.0576	68
   289	1	200.00	120.00	0.000883	10.300000	0.001678	0.0	0.0	0.0	0.0	0.0576	69
   290	1	120.00	50.00	0.017687	10.300000	0.001678	0.0	0.0	0.0	0.0	0.0576	70
   291	1	220.00	210.00	0.004519	10.300000	0.001678	0.0	0.0	0.0	0.0	0.0576	71
   292	1	120.00	70.00	-0.019435	10.300000	0.001678	0.0	0.0	0.0	0.0	0.0576	72
   293	1	180.00	10.00	0.006753	10.300000	0.001678	0.0	0.0	0.0	0.0	0.0576	73
   294	1	40.00	60.00	0.007636	10.300000	0.001678	0.0	0.0	0.0	0.0	0.0576	74
   295	1	160.00	 0.00	-0.014906	10.300000	0.001678	0.0	0.0	0.0	0.0	0.0576	75
   296	1	90.00	280.00	0.011051	10.300000	0.001678	0.0	0.0	0.0	0.0	0.0576	76
   297	1	300.00	260.00	-0.001110	10.300000	0.001678	0.0	0.0	0.0	0.0	0.0576	77
   298	1	90.00	50.00	-0.021019	10.300000	0.001678	0.0	0.0	0.0	0.0	0.0576	78
   299	1	300.00	10.00	-0.014078	10.300000	0.001678	0.0	0.0	0.0	0.0	0.0576	79
   300	1	230.00	150.00	-0.011220	10.300000	0.001678	0.0	0.0	0.0	0.0	0.0576	80
   301	1	50.00	 0.00	0.005073	10.300000	0.001678	0.0	0.0	0.0	0.0	0.0576	81
   302	1	240.00	130.00	-0.003914	10.300000	0.001678	0.0	0.0	0.0	0.0	0.0576	82
   303	1	90.00	100.00	0.017380	10.300000	0.001678	0.0	0.0	0.0	0.0	0.0576	83
   304	1	270.00	190.00	-0.002222	10.300000	0.001678	0.0	0.0	0.0	0.0	0.0576	84
   305	1	270.00	220.00	-0.005656	10.300000	0.001678	0.0	0.0	0.0	0.0	0.0576	85
   306	1	130.00	180.00	-0.006225	10.300000	0.001678	0.0	0.0	0.0	0.0	0.0576	86
   307	1	280.00	270.00	-0.000105	10.300000	0.001678	0.0	0.0	0.0	0.0	0.0576	87
   308	1	300.00	100.00	0.004790	10.300000	0.001678	0.0	0.0	0.0	0.0	0.0576	88
   309	1	30.00	230.00	-0.002900	10.300000	0.001678	0.0	0.0	0.0	0.0	0.0576	89
   310	1	180.00	200.00	0.004359	10.300000	0.001678	0.0	0.0	0.0	0.0	0.0576	90
   311	1	90.00	70.00	0.001233	10.300000	0.001678	0.0	0.0	0.0	0.0	0.0576	91
   312	1	130.00	60.00	0.001991	10.300000	0.001678	0.0	0.0	0.0	0.0	0.0576	92
   313	1	270.00	110.00	-0.002569	10.300000	0.001678	0.0	0.0	0.0	0.0	0.0576	93
   314	1	60.00	160.00	0.002789	10.300000	0.001678	0.0	0.0	0.0	0.0	0.0576	94
   315	1	210.00	80.00	0.001842	10.300000	0.001678	0.0	0.0	0.0	0.0	0.0576	95
   316	1	120.00	280.00	-0.003496	10.300000	0.001678	0.0	0.0	0.0	0.0	0.0576	96
   317	1	250.00	180.00	-0.021189	10.300000	0.001678	0.0	0.0	0.0	0.0	0.0576	97
   318	1	240.00	80.00	0.014004	10.300000	0.001678	0.0	0.0	0.0	0.0	0.0576	98
   319	1	30.00	80.00	-0.001361	10.300000	0.001678	0.0	0.0	0.0	0.0	0.0576	99
   320	1	30.00	10.00	-0.006878	10.300000	0.001678	0.0	0.0	0.0	0.0	0.0576	100
   321	1	50.00	30.00	-0.017704	10.300000	0.001678	0.0	0.0	0.0	0.0	0.0576	101
   322	1	290.00	 0.00	0.009196	10.300000	0.001678	0.0	0.0	0.0	0.0	0.0576	102
   323	1	30.00	170.00	-0.003760	10.300000	0.001678	0.0	0.0	0.0	0.0	0.0576	103
   324	1	220.00	30.00	-0.005126	10.300000	0.001678	0.0	0.0	0.0	0.0	0.0576	104
   325	1	100.00	120.00	-0.017156	10.300000	0.001678	0.0	0.0	0.0	0.0	0.0576	105
   326	1	130.00	30.00	0.004584	10.300000	0.001678	0.0	0.0	0.0	0.0	0.0576	106
   327	1	140.00	150.00	0.003978	10.300000	0.001678	0.0	0.0	0.0	0.0	0.0576	107
   328	1	180.00	170.00	-0.003267	10.300000	0.001678	0.0	0.0	0.0	0.0	0.0576	108
   329	1	20.00	270.00	-0.001273	10.300000	0.001678	0.0	0.0	0.0	0.0	0.0576	109
   330	1	130.00	300.00	0.006825	10.300000	0.001678	0.0	0.0	0.0	0.0	0.0576	110
   331	1	 0.00	200.00	-0.008849	10.300000	0.001678	0.0	0.0	0.0	0.0	0.0576	111
   332	1	230.00	120.00	0.001443	10.300000	0.001678	0.0	0.0	0.0	0.0	0.0576	112
   333	1	240.00	190.00	0.013982	10.300000	0.001678	0.0	0.0	0.0	0.0	0.0576	113
   334	1	160.00	60.00	0.004326	10.300000	0.001678	0.0	0.0	0.0	0.0	0.0576	114
   335	1	290.00	90.00	-0.003044	10.300000	0.001678	0.0	0.0	0.0	0.0	0.0576	115
   336	1	180.00	250.00	0.006287	10.300000	0.001678	0.0	0.0	0.0	0.0	0.0576	116
   337	1	40.00	210.00	0.001198	10.300000	0.001678	0.0	0.0	0.0	0.0	0.0576	117
   338	1	 0.00	80.00	0.008844	10.300000	0.001678	0.0	0.0	0.0	0.0	0.0576	118
   339	1	40.00	180.00	-0.004507	10.300000	0.001678	0.0	0.0	0.0	0.0	0.0576	119
   340	1	280.00	120.00	-0.009545	10.300000	0.001678	0.0	0.0	0.0	0.0	0.0576	120
   341	1	240.00	10.00	0.000959	10.300000	0.001678	0.0	0.0	0.0	0.0	0.0576	121
   342	1	40.00	120.00	-0.012745	10.300000	0.001678	0.0	0.0	0.0	0.0	0.0576	122
   343	1	30.00	190.00	0.001798	10.300000	0.001678	0.0	0.0	0.0	0.0	0.0576	123
   344	1	150.00	220.00	0.005893	10.300000	0.001678	0.0	0.0	0.0	0.0	0.0576	124
   345	1	60.00	130.00	-0.000896	10.300000	0.001678	0.0	0.0	0.0	0.0	0.0576	125
   346	1	40.00	150.00	0.007694	10.300000	0.001678	0.0	0.0	0.0	0.0	0.0576	126
   347	1	240.00	50.00	0.009664	10.300000	0.001678	0.0	0.0	0.0	0.0	0.0576	127
   348	1	250.00	240.00	-0.003655	10.300000	0.001678	0.0	0.0	0.0	0.0	0.0576	128
   349	1	230.00	300.00	0.001530	10.300000	0.001678	0.0	0.0	0.0	0.0	0.0576	129
   350	1	230.00	90.00	0.003212	10.300000	0.001678	0.0	0.0	0.0	0.0	0.0576	130
   351	1	200.00	90.00	-0.004361	10.300000	0.001678	0.0	0.0	0.0	0.0	0.0576	131
   352	1	100.00	240.00	0.007228	10.300000	0.001678	0.0	0.0	0.0	0.0	0.0576	132
   353	1	240.00	290.00	0.005294	10.300000	0.001678	0.0	0.0	0.0	0.0	0.0576	133
   354	1	30.00	260.00	-0.006734	10.300000	0.001678	0.0	0.0	0.0	0.0	0.0576	134
   355	1	120.00	110.00	0.004257	10.300000	0.001678	0.0	0.0	0.0	0.0	0.0576	135
   356	1	 0.00	170.00	-0.002486	10.300000	0.001678	0.0	0.0	0.0	0.0	0.0576	136
   357	1	300.00	290.00	-0.022504	10.300000	0.001678	0.0	0.0	0.0	0.0	0.0576	137
   358	1	280.00	60.00	0.022629	10.300000	0.001678	0.0	0.0	0.0	0.0	0.0576	138
   359	1	20.00	120.00	-0.005389	10.300000	0.001678	0.0	0.0	0.0	0.0	0.0576	139
   360	1	180.00	230.00	-0.009204	10.300000	0.001678	0.0	0.0	0.0	0.0	0.0576	140
   361	1	100.00	210.00	-0.010978	10.300000	0.001678	0.0	0.0	0.0	0.0	0.0576	141
   362	1	120.00	160.00	-0.009965	10.300000	0.001678	0.0	0.0	0.0	0.0	0.0576	142
   363	1	210.00	290.00	0.003977	10.300000	0.001678	0.0	0.0	0.0	0.0	0.0576	143
   364	1	10.00	210.00	0.006202	10.300000	0.001678	0.0	0.0	0.0	0.0	0.0576	144
   365	1	190.00	270.00	-0.007833	10.300000	0.001678	0.0	0.0	0.0	0.0	0.0576	145
   366	1	170.00	240.00	0.012161	10.300000	0.001678	0.0	0.0	0.0	0.0	0.0576	146
   367	1	270.00	80.00	-0.003161	10.300000	0.001678	0.0	0.0	0.0	0.0	0.0576	147
   368	1	80.00	90.00	-0.002965	10.300000	0.001678	0.0	0.0	0.0	0.0	0.0576	148
   369	1	150.00	40.00	-0.000441	10.300000	0.001678	0.0	0.0	0.0	0.0	0.0576	149
   370	1	50.00	270.00	-0.001492	10.300000	0.001678	0.0	0.0	0.0	0.0	0.0576	150
   371	1	10.00	60.00	0.008588	10.300000	0.001678	0.0	0.0	0.0	0.0	0.0576	151
   372	1	70.00	 0.00	0.009854	10.300000	0.001678	0.0	0.0	0.0	0.0	0.0576	152
   373	1	140.00	210.00	0.012237	10.300000	0.001678	0.0	0.0	0.0	0.0	0.0576	153
   374	1	 0.00	40.00	-0.001359	10.300000	0.001678	0.0	0.0	0.0	0.0	0.0576	154
   375	1	250.00	30.00	-0.005819	10.300000	0.001678	0.0	0.0	0.0	0.0	0.0576	155
   376	1	150.00	70.00	-0.003426	10.300000	0.001678	0.0	0.0	0.0	0.0	0.0576	156
   377	1	120.00	10.00	0.011867	10.300000	0.001678	0.0	0.0	0.0	0.0	0.0576	157
   378	1	270.00	170.00	0.009344	10.300000	0.001678	0.0	0.0	0.0	0.0	0.0576	158
   379	1	120.00	130.00	0.002112	10.300000	0.001678	0.0	0.0	0.0	0.0	0.0576	159
   380	1	200.00	300.00	0.013633	10.300000	0.001678	0.0	0.0	0.0	0.0	0.0576	160
   381	1	20.00	180.00	0.011587	10.300000	0.001678	0.0	0.0	0.0	0.0	0.0576	161
   382	1	150.00	110.00	0.014747	10.300000	0.001678	0.0	0.0	0.0	0.0	0.0576	162
   383	1	60.00	280.00	-0.006214	10.300000	0.001678	0.0	0.0	0.0	0.0	0.0576	163
   384	1	110.00	60.00	-0.006029	10.300000	0.001678	0.0	0.0	0.0	0.0	0.0576	164
   385	1	 0.00	10.00	0.006340	10.300000	0.001678	0.0	0.0	0.0	0.0	0.0576	165
   386	1	250.00	 0.00	0.004239	10.300000	0.001678	0.0	0.0	0.0	0.0	0.0576	166
   387	1	180.00	70.00	0.002466	10.300000	0.001678	0.0	0.0	0.0	0.0	0.0576	167
   388	1	290.00	150.00	-0.004038	10.300000	0.001678	0.0	0.0	0.0	0.0	0.0576	168
   389	1	250.00	120.00	-0.011986	10.300000	0.001678	0.0	0.0	0.0	0.0	0.0576	169
   390	1	200.00	240.00	-0.016977	10.300000	0.001678	0.0	0.0	0.0	0.0	0.0576	170
   391	1	30.00	50.00	0.014762	10.300000	0.001678	0.0	0.0	0.0	0.0	0.0576	171
   392	1	170.00	150.00	0.003773	10.300000	0.001678	0.0	0.0	0.0	0.0	0.0576	172
   393	1	180.00	40.00	-0.005332	10.300000	0.001678	0.0	0.0	0.0	0.0	0.0576	173