LAMMPS (17 Nov 2016)
OMP_NUM_THREADS environment is not set. Defaulting to 1 thread. (../comm.cpp:90)
  using 1 OpenMP thread(s) per MPI task
### ---preamble--- ###

units micro
atom_style hybrid sphere paramagnet bond
boundary s s p
dimension 2
neighbor 4.0 nsq
pair_style lj/cut/dipole/cut 0 20
bond_style biharmonic

### ---Create Particles and Region--- ###
read_data \test_lammps_scripts\test.lmpdata
