ITEM: TIMESTEP
0
ITEM: NUMBER OF ATOMS
678
ITEM: BOX BOUNDS ss ss pp
-1.7538750000000000e+01 3.5003874999999999e+02
-1.7687755455360129e+01 2.9048575764745829e+02
-2.0000000000000000e-02 2.0000000000000000e-02
ITEM: ATOMS id type x y z 
650 2 -8.75 -15.1554 0 
311 1 -4.41987 -17.6554 0 
325 1 13.0801 -12.6554 0 
664 2 8.75 -15.1554 0 
312 1 30.5801 -17.6554 0 
651 2 26.25 -15.1554 0 
326 1 48.0801 -12.6554 0 
665 2 43.75 -15.1554 0 
313 1 65.5801 -17.6554 0 
652 2 61.25 -15.1554 0 
666 2 78.75 -15.1554 0 
327 1 83.0801 -12.6554 0 
314 1 100.58 -17.6554 0 
653 2 96.25 -15.1554 0 
667 2 113.75 -15.1554 0 
328 1 118.08 -12.6554 0 
315 1 135.58 -17.6554 0 
654 2 131.25 -15.1554 0 
329 1 153.08 -12.6554 0 
668 2 148.75 -15.1554 0 
655 2 166.25 -15.1554 0 
316 1 170.58 -17.6554 0 
330 1 188.08 -12.6554 0 
669 2 183.75 -15.1554 0 
656 2 201.25 -15.1554 0 
317 1 205.58 -17.6554 0 
331 1 223.08 -12.6554 0 
670 2 218.75 -15.1554 0 
657 2 236.25 -15.1554 0 
318 1 240.58 -17.6554 0 
332 1 258.08 -12.6554 0 
671 2 253.75 -15.1554 0 
319 1 275.58 -17.6554 0 
658 2 271.25 -15.1554 0 
672 2 288.75 -15.1554 0 
333 1 293.08 -12.6554 0 
320 1 310.58 -17.6554 0 
659 2 306.25 -15.1554 0 
673 2 323.75 -15.1554 0 
334 1 328.08 -12.6554 0 
301 1 -17.5 -5 0 
640 2 -17.5 2.14313e-15 0 
1 1 17.5 5 0 
340 2 17.5 0 0 
2 1 52.5 5 0 
341 2 52.5 0 0 
3 1 87.5 5 0 
342 2 87.5 0 0 
4 1 122.5 5 0 
343 2 122.5 0 0 
5 1 157.5 5 0 
344 2 157.5 0 0 
6 1 192.5 5 0 
345 2 192.5 0 0 
7 1 227.5 5 0 
346 2 227.5 0 0 
8 1 262.5 5 0 
347 2 262.5 0 0 
9 1 297.5 5 0 
348 2 297.5 0 0 
10 1 332.5 5 0 
349 2 332.5 0 0 
201 1 -13.0801 12.6554 0 
540 2 -8.75 15.1554 0 
101 1 4.41987 17.6554 0 
440 2 8.75 15.1554 0 
202 1 21.9199 12.6554 0 
541 2 26.25 15.1554 0 
102 1 39.4199 17.6554 0 
441 2 43.75 15.1554 0 
203 1 56.9199 12.6554 0 
542 2 61.25 15.1554 0 
103 1 74.4199 17.6554 0 
442 2 78.75 15.1554 0 
204 1 91.9199 12.6554 0 
543 2 96.25 15.1554 0 
104 1 109.42 17.6554 0 
443 2 113.75 15.1554 0 
205 1 126.92 12.6554 0 
544 2 131.25 15.1554 0 
105 1 144.42 17.6554 0 
444 2 148.75 15.1554 0 
206 1 161.92 12.6554 0 
545 2 166.25 15.1554 0 
106 1 179.42 17.6554 0 
445 2 183.75 15.1554 0 
207 1 196.92 12.6554 0 
546 2 201.25 15.1554 0 
107 1 214.42 17.6554 0 
446 2 218.75 15.1554 0 
208 1 231.92 12.6554 0 
547 2 236.25 15.1554 0 
108 1 249.42 17.6554 0 
447 2 253.75 15.1554 0 
209 1 266.92 12.6554 0 
548 2 271.25 15.1554 0 
109 1 284.42 17.6554 0 
448 2 288.75 15.1554 0 
210 1 301.92 12.6554 0 
549 2 306.25 15.1554 0 
110 1 319.42 17.6554 0 
449 2 323.75 15.1554 0 
335 1 345.58 17.6554 0 
674 2 341.25 15.1554 0 
302 1 3.27346e-15 25.3109 0 
641 2 3.88578e-15 30.3109 0 
350 2 35 30.3109 0 
351 2 70 30.3109 0 
352 2 105 30.3109 0 
353 2 140 30.3109 0 
354 2 175 30.3109 0 
355 2 210 30.3109 0 
356 2 245 30.3109 0 
357 2 280 30.3109 0 
358 2 315 30.3109 0 
359 2 350 30.3109 0 
211 1 4.41987 42.9663 0 
321 1 -4.41987 42.9663 0 
11 1 35 35.3109 0 
212 1 39.4199 42.9663 0 
12 1 70 35.3109 0 
213 1 74.4199 42.9663 0 
13 1 105 35.3109 0 
214 1 109.42 42.9663 0 
14 1 140 35.3109 0 
215 1 144.42 42.9663 0 
15 1 175 35.3109 0 
216 1 179.42 42.9663 0 
16 1 210 35.3109 0 
217 1 214.42 42.9663 0 
17 1 245 35.3109 0 
218 1 249.42 42.9663 0 
18 1 280 35.3109 0 
219 1 284.42 42.9663 0 
19 1 315 35.3109 0 
220 1 319.42 42.9663 0 
20 1 350 35.3109 0 
303 1 -17.5 55.6218 0 
660 2 -8.75 45.4663 0 
550 2 8.75 45.4663 0 
111 1 21.9199 47.9663 0 
450 2 26.25 45.4663 0 
551 2 43.75 45.4663 0 
112 1 56.9199 47.9663 0 
451 2 61.25 45.4663 0 
552 2 78.75 45.4663 0 
113 1 91.9199 47.9663 0 
452 2 96.25 45.4663 0 
553 2 113.75 45.4663 0 
114 1 126.92 47.9663 0 
453 2 131.25 45.4663 0 
554 2 148.75 45.4663 0 
115 1 161.92 47.9663 0 
454 2 166.25 45.4663 0 
555 2 183.75 45.4663 0 
116 1 196.92 47.9663 0 
455 2 201.25 45.4663 0 
556 2 218.75 45.4663 0 
117 1 231.92 47.9663 0 
456 2 236.25 45.4663 0 
557 2 253.75 45.4663 0 
118 1 266.92 47.9663 0 
457 2 271.25 45.4663 0 
558 2 288.75 45.4663 0 
119 1 301.92 47.9663 0 
458 2 306.25 45.4663 0 
559 2 323.75 45.4663 0 
120 1 336.92 47.9663 0 
459 2 341.25 45.4663 0 
642 2 -17.5 60.6218 0 
30 1 17.5 65.6218 0 
369 2 17.5 60.6218 0 
21 1 52.5 65.6218 0 
360 2 52.5 60.6218 0 
22 1 87.5 65.6218 0 
361 2 87.5 60.6218 0 
23 1 122.5 65.6218 0 
362 2 122.5 60.6218 0 
24 1 157.5 65.6218 0 
363 2 157.5 60.6218 0 
25 1 192.5 65.6218 0 
364 2 192.5 60.6218 0 
26 1 227.5 65.6218 0 
365 2 227.5 60.6218 0 
27 1 262.5 65.6218 0 
366 2 262.5 60.6218 0 
28 1 297.5 65.6218 0 
367 2 297.5 60.6218 0 
29 1 332.5 65.6218 0 
368 2 332.5 60.6218 0 
230 1 -13.0801 73.2772 0 
569 2 -8.75 75.7772 0 
130 1 4.41987 78.2772 0 
469 2 8.75 75.7772 0 
221 1 21.9199 73.2772 0 
560 2 26.25 75.7772 0 
121 1 39.4199 78.2772 0 
460 2 43.75 75.7772 0 
222 1 56.9199 73.2772 0 
561 2 61.25 75.7772 0 
122 1 74.4199 78.2772 0 
461 2 78.75 75.7772 0 
223 1 91.9199 73.2772 0 
562 2 96.25 75.7772 0 
123 1 109.42 78.2772 0 
462 2 113.75 75.7772 0 
224 1 126.92 73.2772 0 
563 2 131.25 75.7772 0 
124 1 144.42 78.2772 0 
463 2 148.75 75.7772 0 
225 1 161.92 73.2772 0 
564 2 166.25 75.7772 0 
125 1 179.42 78.2772 0 
464 2 183.75 75.7772 0 
226 1 196.92 73.2772 0 
565 2 201.25 75.7772 0 
126 1 214.42 78.2772 0 
465 2 218.75 75.7772 0 
227 1 231.92 73.2772 0 
566 2 236.25 75.7772 0 
127 1 249.42 78.2772 0 
466 2 253.75 75.7772 0 
228 1 266.92 73.2772 0 
567 2 271.25 75.7772 0 
128 1 284.42 78.2772 0 
467 2 288.75 75.7772 0 
229 1 301.92 73.2772 0 
568 2 306.25 75.7772 0 
129 1 319.42 78.2772 0 
468 2 323.75 75.7772 0 
336 1 345.58 78.2772 0 
675 2 341.25 75.7772 0 
304 1 -6.12323e-16 85.9327 0 
643 2 0 90.9327 0 
379 2 35 90.9327 0 
370 2 70 90.9327 0 
371 2 105 90.9327 0 
372 2 140 90.9327 0 
373 2 175 90.9327 0 
374 2 210 90.9327 0 
375 2 245 90.9327 0 
376 2 280 90.9327 0 
377 2 315 90.9327 0 
378 2 350 90.9327 0 
240 1 4.41987 103.588 0 
322 1 -4.41987 103.588 0 
40 1 35 95.9327 0 
231 1 39.4199 103.588 0 
31 1 70 95.9327 0 
232 1 74.4199 103.588 0 
32 1 105 95.9327 0 
233 1 109.42 103.588 0 
33 1 140 95.9327 0 
234 1 144.42 103.588 0 
34 1 175 95.9327 0 
235 1 179.42 103.588 0 
35 1 210 95.9327 0 
236 1 214.42 103.588 0 
36 1 245 95.9327 0 
237 1 249.42 103.588 0 
37 1 280 95.9327 0 
238 1 284.42 103.588 0 
38 1 315 95.9327 0 
239 1 319.42 103.588 0 
39 1 350 95.9327 0 
305 1 -17.5 116.244 0 
661 2 -8.75 106.088 0 
579 2 8.75 106.088 0 
140 1 21.9199 108.588 0 
479 2 26.25 106.088 0 
570 2 43.75 106.088 0 
131 1 56.9199 108.588 0 
470 2 61.25 106.088 0 
571 2 78.75 106.088 0 
132 1 91.9199 108.588 0 
471 2 96.25 106.088 0 
572 2 113.75 106.088 0 
133 1 126.92 108.588 0 
472 2 131.25 106.088 0 
573 2 148.75 106.088 0 
134 1 161.92 108.588 0 
473 2 166.25 106.088 0 
574 2 183.75 106.088 0 
135 1 196.92 108.588 0 
474 2 201.25 106.088 0 
575 2 218.75 106.088 0 
136 1 231.92 108.588 0 
475 2 236.25 106.088 0 
576 2 253.75 106.088 0 
137 1 266.92 108.588 0 
476 2 271.25 106.088 0 
577 2 288.75 106.088 0 
138 1 301.92 108.588 0 
477 2 306.25 106.088 0 
578 2 323.75 106.088 0 
139 1 336.92 108.588 0 
478 2 341.25 106.088 0 
644 2 -17.5 121.244 0 
49 1 17.5 126.244 0 
388 2 17.5 121.244 0 
50 1 52.5 126.244 0 
389 2 52.5 121.244 0 
41 1 87.5 126.244 0 
380 2 87.5 121.244 0 
42 1 122.5 126.244 0 
381 2 122.5 121.244 0 
43 1 157.5 126.244 0 
382 2 157.5 121.244 0 
44 1 192.5 126.244 0 
383 2 192.5 121.244 0 
45 1 227.5 126.244 0 
384 2 227.5 121.244 0 
46 1 262.5 126.244 0 
385 2 262.5 121.244 0 
47 1 297.5 126.244 0 
386 2 297.5 121.244 0 
48 1 332.5 126.244 0 
387 2 332.5 121.244 0 
249 1 -13.0801 133.899 0 
588 2 -8.75 136.399 0 
149 1 4.41987 138.899 0 
488 2 8.75 136.399 0 
250 1 21.9199 133.899 0 
589 2 26.25 136.399 0 
150 1 39.4199 138.899 0 
489 2 43.75 136.399 0 
241 1 56.9199 133.899 0 
580 2 61.25 136.399 0 
141 1 74.4199 138.899 0 
480 2 78.75 136.399 0 
242 1 91.9199 133.899 0 
581 2 96.25 136.399 0 
142 1 109.42 138.899 0 
481 2 113.75 136.399 0 
243 1 126.92 133.899 0 
582 2 131.25 136.399 0 
143 1 144.42 138.899 0 
482 2 148.75 136.399 0 
244 1 161.92 133.899 0 
583 2 166.25 136.399 0 
144 1 179.42 138.899 0 
483 2 183.75 136.399 0 
245 1 196.92 133.899 0 
584 2 201.25 136.399 0 
145 1 214.42 138.899 0 
484 2 218.75 136.399 0 
246 1 231.92 133.899 0 
585 2 236.25 136.399 0 
146 1 249.42 138.899 0 
485 2 253.75 136.399 0 
247 1 266.92 133.899 0 
586 2 271.25 136.399 0 
147 1 284.42 138.899 0 
486 2 288.75 136.399 0 
248 1 301.92 133.899 0 
587 2 306.25 136.399 0 
148 1 319.42 138.899 0 
487 2 323.75 136.399 0 
337 1 345.58 138.899 0 
676 2 341.25 136.399 0 
306 1 -6.12323e-16 146.554 0 
645 2 0 151.554 0 
398 2 35 151.554 0 
399 2 70 151.554 0 
390 2 105 151.554 0 
391 2 140 151.554 0 
392 2 175 151.554 0 
393 2 210 151.554 0 
394 2 245 151.554 0 
395 2 280 151.554 0 
396 2 315 151.554 0 
397 2 350 151.554 0 
662 2 -8.75 166.71 0 
259 1 4.41987 164.21 0 
323 1 -4.41987 164.21 0 
598 2 8.75 166.71 0 
498 2 26.25 166.71 0 
59 1 35 156.554 0 
260 1 39.4199 164.21 0 
599 2 43.75 166.71 0 
499 2 61.25 166.71 0 
60 1 70 156.554 0 
251 1 74.4199 164.21 0 
590 2 78.75 166.71 0 
490 2 96.25 166.71 0 
51 1 105 156.554 0 
252 1 109.42 164.21 0 
591 2 113.75 166.71 0 
52 1 140 156.554 0 
491 2 131.25 166.71 0 
253 1 144.42 164.21 0 
592 2 148.75 166.71 0 
492 2 166.25 166.71 0 
53 1 175 156.554 0 
254 1 179.42 164.21 0 
593 2 183.75 166.71 0 
493 2 201.25 166.71 0 
54 1 210 156.554 0 
255 1 214.42 164.21 0 
594 2 218.75 166.71 0 
494 2 236.25 166.71 0 
55 1 245 156.554 0 
256 1 249.42 164.21 0 
595 2 253.75 166.71 0 
495 2 271.25 166.71 0 
56 1 280 156.554 0 
257 1 284.42 164.21 0 
596 2 288.75 166.71 0 
496 2 306.25 166.71 0 
57 1 315 156.554 0 
258 1 319.42 164.21 0 
597 2 323.75 166.71 0 
58 1 350 156.554 0 
497 2 341.25 166.71 0 
307 1 -17.5 176.865 0 
159 1 21.9199 169.21 0 
160 1 56.9199 169.21 0 
151 1 91.9199 169.21 0 
152 1 126.92 169.21 0 
153 1 161.92 169.21 0 
154 1 196.92 169.21 0 
155 1 231.92 169.21 0 
156 1 266.92 169.21 0 
157 1 301.92 169.21 0 
158 1 336.92 169.21 0 
646 2 -17.5 181.865 0 
68 1 17.5 186.865 0 
407 2 17.5 181.865 0 
69 1 52.5 186.865 0 
408 2 52.5 181.865 0 
70 1 87.5 186.865 0 
409 2 87.5 181.865 0 
61 1 122.5 186.865 0 
400 2 122.5 181.865 0 
62 1 157.5 186.865 0 
401 2 157.5 181.865 0 
63 1 192.5 186.865 0 
402 2 192.5 181.865 0 
64 1 227.5 186.865 0 
403 2 227.5 181.865 0 
65 1 262.5 186.865 0 
404 2 262.5 181.865 0 
66 1 297.5 186.865 0 
405 2 297.5 181.865 0 
67 1 332.5 186.865 0 
406 2 332.5 181.865 0 
268 1 -13.0801 194.521 0 
607 2 -8.75 197.021 0 
168 1 4.41987 199.521 0 
507 2 8.75 197.021 0 
269 1 21.9199 194.521 0 
608 2 26.25 197.021 0 
169 1 39.4199 199.521 0 
508 2 43.75 197.021 0 
270 1 56.9199 194.521 0 
609 2 61.25 197.021 0 
170 1 74.4199 199.521 0 
509 2 78.75 197.021 0 
261 1 91.9199 194.521 0 
600 2 96.25 197.021 0 
161 1 109.42 199.521 0 
500 2 113.75 197.021 0 
262 1 126.92 194.521 0 
601 2 131.25 197.021 0 
162 1 144.42 199.521 0 
501 2 148.75 197.021 0 
263 1 161.92 194.521 0 
602 2 166.25 197.021 0 
163 1 179.42 199.521 0 
502 2 183.75 197.021 0 
264 1 196.92 194.521 0 
603 2 201.25 197.021 0 
164 1 214.42 199.521 0 
503 2 218.75 197.021 0 
265 1 231.92 194.521 0 
604 2 236.25 197.021 0 
165 1 249.42 199.521 0 
504 2 253.75 197.021 0 
266 1 266.92 194.521 0 
605 2 271.25 197.021 0 
166 1 284.42 199.521 0 
505 2 288.75 197.021 0 
267 1 301.92 194.521 0 
606 2 306.25 197.021 0 
167 1 319.42 199.521 0 
506 2 323.75 197.021 0 
338 1 345.58 199.521 0 
677 2 341.25 197.021 0 
308 1 -6.12323e-16 207.176 0 
647 2 0 212.176 0 
417 2 35 212.176 0 
418 2 70 212.176 0 
419 2 105 212.176 0 
410 2 140 212.176 0 
411 2 175 212.176 0 
412 2 210 212.176 0 
413 2 245 212.176 0 
414 2 280 212.176 0 
415 2 315 212.176 0 
416 2 350 212.176 0 
663 2 -8.75 227.332 0 
278 1 4.41987 224.832 0 
324 1 -4.41987 224.832 0 
617 2 8.75 227.332 0 
517 2 26.25 227.332 0 
78 1 35 217.176 0 
279 1 39.4199 224.832 0 
618 2 43.75 227.332 0 
518 2 61.25 227.332 0 
79 1 70 217.176 0 
280 1 74.4199 224.832 0 
619 2 78.75 227.332 0 
519 2 96.25 227.332 0 
80 1 105 217.176 0 
271 1 109.42 224.832 0 
610 2 113.75 227.332 0 
71 1 140 217.176 0 
510 2 131.25 227.332 0 
272 1 144.42 224.832 0 
611 2 148.75 227.332 0 
72 1 175 217.176 0 
511 2 166.25 227.332 0 
273 1 179.42 224.832 0 
612 2 183.75 227.332 0 
512 2 201.25 227.332 0 
73 1 210 217.176 0 
274 1 214.42 224.832 0 
613 2 218.75 227.332 0 
513 2 236.25 227.332 0 
74 1 245 217.176 0 
275 1 249.42 224.832 0 
614 2 253.75 227.332 0 
514 2 271.25 227.332 0 
75 1 280 217.176 0 
276 1 284.42 224.832 0 
615 2 288.75 227.332 0 
515 2 306.25 227.332 0 
76 1 315 217.176 0 
277 1 319.42 224.832 0 
616 2 323.75 227.332 0 
77 1 350 217.176 0 
516 2 341.25 227.332 0 
309 1 -17.5 237.487 0 
178 1 21.9199 229.832 0 
179 1 56.9199 229.832 0 
180 1 91.9199 229.832 0 
171 1 126.92 229.832 0 
172 1 161.92 229.832 0 
173 1 196.92 229.832 0 
174 1 231.92 229.832 0 
175 1 266.92 229.832 0 
176 1 301.92 229.832 0 
177 1 336.92 229.832 0 
648 2 -17.5 242.487 0 
87 1 17.5 247.487 0 
426 2 17.5 242.487 0 
88 1 52.5 247.487 0 
427 2 52.5 242.487 0 
89 1 87.5 247.487 0 
428 2 87.5 242.487 0 
90 1 122.5 247.487 0 
429 2 122.5 242.487 0 
81 1 157.5 247.487 0 
420 2 157.5 242.487 0 
82 1 192.5 247.487 0 
421 2 192.5 242.487 0 
83 1 227.5 247.487 0 
422 2 227.5 242.487 0 
84 1 262.5 247.487 0 
423 2 262.5 242.487 0 
85 1 297.5 247.487 0 
424 2 297.5 242.487 0 
86 1 332.5 247.487 0 
425 2 332.5 242.487 0 
287 1 -13.0801 255.143 0 
626 2 -8.75 257.643 0 
187 1 4.41987 260.143 0 
526 2 8.75 257.643 0 
288 1 21.9199 255.143 0 
627 2 26.25 257.643 0 
188 1 39.4199 260.143 0 
527 2 43.75 257.643 0 
289 1 56.9199 255.143 0 
628 2 61.25 257.643 0 
189 1 74.4199 260.143 0 
528 2 78.75 257.643 0 
290 1 91.9199 255.143 0 
629 2 96.25 257.643 0 
190 1 109.42 260.143 0 
529 2 113.75 257.643 0 
281 1 126.92 255.143 0 
620 2 131.25 257.643 0 
181 1 144.42 260.143 0 
520 2 148.75 257.643 0 
282 1 161.92 255.143 0 
621 2 166.25 257.643 0 
182 1 179.42 260.143 0 
521 2 183.75 257.643 0 
283 1 196.92 255.143 0 
622 2 201.25 257.643 0 
183 1 214.42 260.143 0 
522 2 218.75 257.643 0 
284 1 231.92 255.143 0 
623 2 236.25 257.643 0 
184 1 249.42 260.143 0 
523 2 253.75 257.643 0 
285 1 266.92 255.143 0 
624 2 271.25 257.643 0 
185 1 284.42 260.143 0 
524 2 288.75 257.643 0 
286 1 301.92 255.143 0 
625 2 306.25 257.643 0 
186 1 319.42 260.143 0 
525 2 323.75 257.643 0 
339 1 345.58 260.143 0 
678 2 341.25 257.643 0 
310 1 -6.12323e-16 267.798 0 
649 2 0 272.798 0 
97 1 35 277.798 0 
436 2 35 272.798 0 
98 1 70 277.798 0 
437 2 70 272.798 0 
99 1 105 277.798 0 
438 2 105 272.798 0 
100 1 140 277.798 0 
439 2 140 272.798 0 
91 1 175 277.798 0 
430 2 175 272.798 0 
92 1 210 277.798 0 
431 2 210 272.798 0 
93 1 245 277.798 0 
432 2 245 272.798 0 
94 1 280 277.798 0 
433 2 280 272.798 0 
95 1 315 277.798 0 
434 2 315 272.798 0 
96 1 350 277.798 0 
435 2 350 272.798 0 
297 1 4.41987 285.453 0 
636 2 8.75 287.953 0 
197 1 21.9199 290.453 0 
536 2 26.25 287.953 0 
298 1 39.4199 285.453 0 
637 2 43.75 287.953 0 
198 1 56.9199 290.453 0 
537 2 61.25 287.953 0 
299 1 74.4199 285.453 0 
638 2 78.75 287.953 0 
199 1 91.9199 290.453 0 
538 2 96.25 287.953 0 
300 1 109.42 285.453 0 
639 2 113.75 287.953 0 
200 1 126.92 290.453 0 
539 2 131.25 287.953 0 
291 1 144.42 285.453 0 
630 2 148.75 287.953 0 
191 1 161.92 290.453 0 
530 2 166.25 287.953 0 
292 1 179.42 285.453 0 
631 2 183.75 287.953 0 
192 1 196.92 290.453 0 
531 2 201.25 287.953 0 
293 1 214.42 285.453 0 
632 2 218.75 287.953 0 
193 1 231.92 290.453 0 
532 2 236.25 287.953 0 
294 1 249.42 285.453 0 
633 2 253.75 287.953 0 
194 1 266.92 290.453 0 
533 2 271.25 287.953 0 
295 1 284.42 285.453 0 
634 2 288.75 287.953 0 
195 1 301.92 290.453 0 
534 2 306.25 287.953 0 
296 1 319.42 285.453 0 
635 2 323.75 287.953 0 
196 1 336.92 290.453 0 
535 2 341.25 287.953 0 
ITEM: TIMESTEP
100
ITEM: NUMBER OF ATOMS
678
ITEM: BOX BOUNDS ss ss pp
-1.8345738873224917e+01 3.5032985075979684e+02
-1.7981773741029567e+01 2.9106032089560034e+02
-2.0000000000000000e-02 2.0000000000000000e-02
ITEM: ATOMS id type x y z 
650 2 -8.75 -15.1554 0 
311 1 -4.53909 -18.0147 0 
325 1 13.1211 -12.8116 0 
664 2 8.75 -15.1554 0 
312 1 30.5634 -17.8472 0 
651 2 26.25 -15.1554 0 
326 1 48.1943 -12.6664 0 
665 2 43.75 -15.1554 0 
313 1 65.7398 -17.6915 0 
652 2 61.25 -15.1554 0 
666 2 78.75 -15.1554 0 
327 1 83.1412 -12.8741 0 
314 1 100.646 -17.7977 0 
653 2 96.25 -15.1554 0 
667 2 113.75 -15.1554 0 
328 1 118.154 -12.7617 0 
315 1 135.638 -17.7792 0 
654 2 131.25 -15.1554 0 
329 1 153.199 -12.8782 0 
668 2 148.75 -15.1554 0 
655 2 166.25 -15.1554 0 
316 1 170.512 -17.968 0 
330 1 188.174 -12.77 0 
669 2 183.75 -15.1554 0 
656 2 201.25 -15.1554 0 
317 1 205.613 -18.0483 0 
331 1 223.17 -12.8747 0 
670 2 218.75 -15.1554 0 
657 2 236.25 -15.1554 0 
318 1 240.721 -17.8549 0 
332 1 258.187 -12.9236 0 
671 2 253.75 -15.1554 0 
319 1 275.704 -17.7665 0 
658 2 271.25 -15.1554 0 
672 2 288.75 -15.1554 0 
333 1 293.191 -12.7496 0 
320 1 310.654 -17.9992 0 
659 2 306.25 -15.1554 0 
673 2 323.75 -15.1554 0 
334 1 328.261 -12.9173 0 
301 1 -17.8758 -5.12906 0 
640 2 -17.5 2.14313e-15 0 
1 1 17.6095 1.66062 0 
340 2 17.5 0 0 
2 1 52.3624 2.33852 0 
341 2 52.5 0 0 
3 1 87.3395 2.08798 0 
342 2 87.5 0 0 
4 1 122.366 2.22696 0 
343 2 122.5 0 0 
5 1 157.243 2.26617 0 
344 2 157.5 0 0 
6 1 192.346 1.95045 0 
345 2 192.5 0 0 
7 1 227.408 2.29638 0 
346 2 227.5 0 0 
8 1 262.345 2.33412 0 
347 2 262.5 0 0 
9 1 297.281 2.37133 0 
348 2 297.5 0 0 
10 1 332.638 5.12779 0 
349 2 332.5 0 0 
201 1 -13.1887 12.7875 0 
540 2 -8.75 15.1554 0 
101 1 6.51088 16.0104 0 
440 2 8.75 15.1554 0 
202 1 24.6196 14.7265 0 
541 2 26.25 15.1554 0 
102 1 39.653 17.572 0 
441 2 43.75 15.1554 0 
203 1 59.2471 14.8106 0 
542 2 61.25 15.1554 0 
103 1 74.6548 17.5956 0 
442 2 78.75 15.1554 0 
204 1 94.3934 14.7465 0 
543 2 96.25 15.1554 0 
104 1 109.628 17.4844 0 
443 2 113.75 15.1554 0 
205 1 129.186 14.5826 0 
544 2 131.25 15.1554 0 
105 1 144.436 17.4794 0 
444 2 148.75 15.1554 0 
206 1 164.293 14.8023 0 
545 2 166.25 15.1554 0 
106 1 179.676 17.5839 0 
445 2 183.75 15.1554 0 
207 1 199.121 14.4443 0 
546 2 201.25 15.1554 0 
107 1 214.526 17.5675 0 
446 2 218.75 15.1554 0 
208 1 234.258 14.6235 0 
547 2 236.25 15.1554 0 
108 1 249.517 17.6876 0 
447 2 253.75 15.1554 0 
209 1 269.206 14.6595 0 
548 2 271.25 15.1554 0 
109 1 284.525 17.4839 0 
448 2 288.75 15.1554 0 
210 1 304.248 14.7952 0 
549 2 306.25 15.1554 0 
110 1 319.661 17.7312 0 
449 2 323.75 15.1554 0 
335 1 345.823 17.5791 0 
674 2 341.25 15.1554 0 
302 1 -0.263677 28.1904 0 
641 2 3.88578e-15 30.3109 0 
350 2 35 30.3109 0 
351 2 70 30.3109 0 
352 2 105 30.3109 0 
353 2 140 30.3109 0 
354 2 175 30.3109 0 
355 2 210 30.3109 0 
356 2 245 30.3109 0 
357 2 280 30.3109 0 
358 2 315 30.3109 0 
359 2 350 30.3109 0 
211 1 7.28232 44.8178 0 
321 1 -8.14359 44.6873 0 
11 1 34.508 32.6375 0 
212 1 41.6279 44.8187 0 
12 1 69.5223 32.4356 0 
213 1 76.6157 44.7299 0 
13 1 104.492 32.3638 0 
214 1 111.771 44.9467 0 
14 1 139.619 32.4087 0 
215 1 146.736 44.935 0 
15 1 174.52 32.4894 0 
216 1 181.727 44.6819 0 
16 1 209.428 32.3217 0 
217 1 216.542 44.969 0 
17 1 244.512 32.3833 0 
218 1 251.599 44.7488 0 
18 1 279.523 32.4799 0 
219 1 286.606 45.0748 0 
19 1 314.636 32.7789 0 
220 1 322.019 45.0529 0 
20 1 350.214 35.4305 0 
303 1 -18.0164 55.6421 0 
660 2 -8.75 45.4663 0 
550 2 8.75 45.4663 0 
111 1 21.9807 47.9364 0 
450 2 26.25 45.4663 0 
551 2 43.75 45.4663 0 
112 1 56.995 47.9519 0 
451 2 61.25 45.4663 0 
552 2 78.75 45.4663 0 
113 1 91.929 48.0967 0 
452 2 96.25 45.4663 0 
553 2 113.75 45.4663 0 
114 1 126.982 47.9733 0 
453 2 131.25 45.4663 0 
554 2 148.75 45.4663 0 
115 1 162.005 47.9066 0 
454 2 166.25 45.4663 0 
555 2 183.75 45.4663 0 
116 1 196.986 47.9105 0 
455 2 201.25 45.4663 0 
556 2 218.75 45.4663 0 
117 1 232.075 47.9687 0 
456 2 236.25 45.4663 0 
557 2 253.75 45.4663 0 
118 1 267.07 47.8181 0 
457 2 271.25 45.4663 0 
558 2 288.75 45.4663 0 
119 1 302.11 47.9867 0 
458 2 306.25 45.4663 0 
559 2 323.75 45.4663 0 
120 1 337.154 48.3337 0 
459 2 341.25 45.4663 0 
642 2 -17.5 60.6218 0 
30 1 17.139 62.2727 0 
369 2 17.5 60.6218 0 
21 1 52.0458 62.6233 0 
360 2 52.5 60.6218 0 
22 1 87.0353 62.827 0 
361 2 87.5 60.6218 0 
23 1 122.128 62.7853 0 
362 2 122.5 60.6218 0 
24 1 156.897 62.6746 0 
363 2 157.5 60.6218 0 
25 1 192.031 62.4936 0 
364 2 192.5 60.6218 0 
26 1 227.174 62.6821 0 
365 2 227.5 60.6218 0 
27 1 262.119 62.6362 0 
366 2 262.5 60.6218 0 
28 1 297.118 62.9241 0 
367 2 297.5 60.6218 0 
29 1 332.273 65.6916 0 
368 2 332.5 60.6218 0 
230 1 -13.1823 73.5243 0 
569 2 -8.75 75.7772 0 
130 1 6.34135 76.7229 0 
469 2 8.75 75.7772 0 
221 1 24.5006 75.3395 0 
560 2 26.25 75.7772 0 
121 1 39.5348 78.221 0 
460 2 43.75 75.7772 0 
222 1 59.297 75.1619 0 
561 2 61.25 75.7772 0 
122 1 74.4163 78.2948 0 
461 2 78.75 75.7772 0 
223 1 93.9561 75.0709 0 
562 2 96.25 75.7772 0 
123 1 109.395 78.2317 0 
462 2 113.75 75.7772 0 
224 1 128.993 75.0526 0 
563 2 131.25 75.7772 0 
124 1 144.437 78.1095 0 
463 2 148.75 75.7772 0 
225 1 164.107 75.1729 0 
564 2 166.25 75.7772 0 
125 1 179.485 78.2664 0 
464 2 183.75 75.7772 0 
226 1 199.17 74.9995 0 
565 2 201.25 75.7772 0 
126 1 214.44 78.2226 0 
465 2 218.75 75.7772 0 
227 1 234.057 74.9933 0 
566 2 236.25 75.7772 0 
127 1 249.498 78.0903 0 
466 2 253.75 75.7772 0 
228 1 269.304 75.1531 0 
567 2 271.25 75.7772 0 
128 1 284.502 78.2032 0 
467 2 288.75 75.7772 0 
229 1 304.371 75.2393 0 
568 2 306.25 75.7772 0 
129 1 319.509 78.3447 0 
468 2 323.75 75.7772 0 
336 1 345.783 78.181 0 
675 2 341.25 75.7772 0 
304 1 -0.400604 88.9366 0 
643 2 0 90.9327 0 
379 2 35 90.9327 0 
370 2 70 90.9327 0 
371 2 105 90.9327 0 
372 2 140 90.9327 0 
373 2 175 90.9327 0 
374 2 210 90.9327 0 
375 2 245 90.9327 0 
376 2 280 90.9327 0 
377 2 315 90.9327 0 
378 2 350 90.9327 0 
240 1 7.32761 105.417 0 
322 1 -7.87308 105.07 0 
40 1 34.4964 92.6495 0 
231 1 41.8165 105.411 0 
31 1 69.5504 92.9677 0 
232 1 76.873 105.617 0 
32 1 104.534 93.521 0 
233 1 111.826 105.656 0 
33 1 139.427 92.8821 0 
234 1 146.743 105.288 0 
34 1 174.591 93.1236 0 
235 1 181.856 105.591 0 
35 1 209.647 92.9551 0 
236 1 216.674 105.331 0 
36 1 244.344 92.9598 0 
237 1 251.366 105.387 0 
37 1 279.575 93.3009 0 
238 1 286.839 105.57 0 
38 1 314.58 93.1777 0 
239 1 321.49 105.459 0 
39 1 350.321 96.1811 0 
305 1 -17.9893 116.161 0 
661 2 -8.75 106.088 0 
579 2 8.75 106.088 0 
140 1 22.2885 108.261 0 
479 2 26.25 106.088 0 
570 2 43.75 106.088 0 
131 1 57.0234 108.548 0 
470 2 61.25 106.088 0 
571 2 78.75 106.088 0 
132 1 92.0826 108.465 0 
471 2 96.25 106.088 0 
572 2 113.75 106.088 0 
133 1 126.996 108.648 0 
472 2 131.25 106.088 0 
573 2 148.75 106.088 0 
134 1 162.072 108.564 0 
473 2 166.25 106.088 0 
574 2 183.75 106.088 0 
135 1 196.95 108.435 0 
474 2 201.25 106.088 0 
575 2 218.75 106.088 0 
136 1 231.93 108.525 0 
475 2 236.25 106.088 0 
576 2 253.75 106.088 0 
137 1 266.91 108.547 0 
476 2 271.25 106.088 0 
577 2 288.75 106.088 0 
138 1 301.907 108.449 0 
477 2 306.25 106.088 0 
578 2 323.75 106.088 0 
139 1 337.027 108.697 0 
478 2 341.25 106.088 0 
644 2 -17.5 121.244 0 
49 1 17.1738 122.722 0 
388 2 17.5 121.244 0 
50 1 51.9868 123.387 0 
389 2 52.5 121.244 0 
41 1 87.1683 123.362 0 
380 2 87.5 121.244 0 
42 1 121.87 123.077 0 
381 2 122.5 121.244 0 
43 1 156.915 123.134 0 
382 2 157.5 121.244 0 
44 1 192.07 123.385 0 
383 2 192.5 121.244 0 
45 1 226.963 123.297 0 
384 2 227.5 121.244 0 
46 1 262.021 123.332 0 
385 2 262.5 121.244 0 
47 1 297.023 123.454 0 
386 2 297.5 121.244 0 
48 1 332.329 126.295 0 
387 2 332.5 121.244 0 
249 1 -13.2861 134.048 0 
588 2 -8.75 136.399 0 
149 1 6.49853 137.224 0 
488 2 8.75 136.399 0 
250 1 24.7183 135.909 0 
589 2 26.25 136.399 0 
150 1 39.5642 138.871 0 
489 2 43.75 136.399 0 
241 1 59.2223 135.757 0 
580 2 61.25 136.399 0 
141 1 74.4494 138.76 0 
480 2 78.75 136.399 0 
242 1 94.2536 135.893 0 
581 2 96.25 136.399 0 
142 1 109.417 138.771 0 
481 2 113.75 136.399 0 
243 1 128.955 135.441 0 
582 2 131.25 136.399 0 
143 1 144.52 138.883 0 
482 2 148.75 136.399 0 
244 1 164.122 135.663 0 
583 2 166.25 136.399 0 
144 1 179.38 138.869 0 
483 2 183.75 136.399 0 
245 1 198.839 135.566 0 
584 2 201.25 136.399 0 
145 1 214.557 138.818 0 
484 2 218.75 136.399 0 
246 1 234.242 135.898 0 
585 2 236.25 136.399 0 
146 1 249.592 138.848 0 
485 2 253.75 136.399 0 
247 1 269.356 135.717 0 
586 2 271.25 136.399 0 
147 1 284.558 139.007 0 
486 2 288.75 136.399 0 
248 1 304.107 135.867 0 
587 2 306.25 136.399 0 
148 1 319.568 138.89 0 
487 2 323.75 136.399 0 
337 1 345.869 138.781 0 
676 2 341.25 136.399 0 
306 1 -0.379971 149.372 0 
645 2 0 151.554 0 
398 2 35 151.554 0 
399 2 70 151.554 0 
390 2 105 151.554 0 
391 2 140 151.554 0 
392 2 175 151.554 0 
393 2 210 151.554 0 
394 2 245 151.554 0 
395 2 280 151.554 0 
396 2 315 151.554 0 
397 2 350 151.554 0 
662 2 -8.75 166.71 0 
259 1 7.27858 165.858 0 
323 1 -8.18818 166.024 0 
598 2 8.75 166.71 0 
498 2 26.25 166.71 0 
59 1 34.5822 153.362 0 
260 1 41.6502 165.956 0 
599 2 43.75 166.71 0 
499 2 61.25 166.71 0 
60 1 69.4263 153.759 0 
251 1 76.7653 166.104 0 
590 2 78.75 166.71 0 
490 2 96.25 166.71 0 
51 1 104.62 153.639 0 
252 1 111.41 165.892 0 
591 2 113.75 166.71 0 
52 1 139.438 153.64 0 
491 2 131.25 166.71 0 
253 1 146.782 166.054 0 
592 2 148.75 166.71 0 
492 2 166.25 166.71 0 
53 1 174.609 153.618 0 
254 1 181.685 165.958 0 
593 2 183.75 166.71 0 
493 2 201.25 166.71 0 
54 1 209.613 153.854 0 
255 1 216.725 166.174 0 
594 2 218.75 166.71 0 
494 2 236.25 166.71 0 
55 1 244.445 153.501 0 
256 1 251.669 166.148 0 
595 2 253.75 166.71 0 
495 2 271.25 166.71 0 
56 1 279.665 153.814 0 
257 1 286.615 166.152 0 
596 2 288.75 166.71 0 
496 2 306.25 166.71 0 
57 1 314.69 154.294 0 
258 1 321.808 166.334 0 
597 2 323.75 166.71 0 
58 1 350.25 156.693 0 
497 2 341.25 166.71 0 
307 1 -18.1681 176.771 0 
159 1 22.1163 169.016 0 
160 1 57.0743 169.36 0 
151 1 91.874 169.08 0 
152 1 126.945 169.209 0 
153 1 162.062 169.205 0 
154 1 197.025 169.235 0 
155 1 232.017 169.174 0 
156 1 267.033 169.183 0 
157 1 301.956 169.259 0 
158 1 336.935 169.494 0 
646 2 -17.5 181.865 0 
68 1 17.1401 183.234 0 
407 2 17.5 181.865 0 
69 1 52.0527 183.928 0 
408 2 52.5 181.865 0 
70 1 87.1097 184.121 0 
409 2 87.5 181.865 0 
61 1 121.805 183.804 0 
400 2 122.5 181.865 0 
62 1 157.031 184.031 0 
401 2 157.5 181.865 0 
63 1 192.107 183.916 0 
402 2 192.5 181.865 0 
64 1 226.968 183.889 0 
403 2 227.5 181.865 0 
65 1 262.005 183.68 0 
404 2 262.5 181.865 0 
66 1 296.977 183.76 0 
405 2 297.5 181.865 0 
67 1 332.499 186.831 0 
406 2 332.5 181.865 0 
268 1 -13.3238 194.802 0 
607 2 -8.75 197.021 0 
168 1 6.45654 197.97 0 
507 2 8.75 197.021 0 
269 1 24.5338 196.449 0 
608 2 26.25 197.021 0 
169 1 39.7116 199.344 0 
508 2 43.75 197.021 0 
270 1 59.2642 196.271 0 
609 2 61.25 197.021 0 
170 1 74.4305 199.476 0 
509 2 78.75 197.021 0 
261 1 94.0663 196.617 0 
600 2 96.25 197.021 0 
161 1 109.521 199.296 0 
500 2 113.75 197.021 0 
262 1 129.131 196.232 0 
601 2 131.25 197.021 0 
162 1 144.552 199.601 0 
501 2 148.75 197.021 0 
263 1 163.995 196.116 0 
602 2 166.25 197.021 0 
163 1 179.325 199.326 0 
502 2 183.75 197.021 0 
264 1 198.985 196.389 0 
603 2 201.25 197.021 0 
164 1 214.472 199.544 0 
503 2 218.75 197.021 0 
265 1 234.275 196.339 0 
604 2 236.25 197.021 0 
165 1 249.648 199.329 0 
504 2 253.75 197.021 0 
266 1 269.239 196.357 0 
605 2 271.25 197.021 0 
166 1 284.484 199.421 0 
505 2 288.75 197.021 0 
267 1 303.963 196.361 0 
606 2 306.25 197.021 0 
167 1 319.292 199.519 0 
506 2 323.75 197.021 0 
338 1 345.762 199.495 0 
677 2 341.25 197.021 0 
308 1 -0.301183 210.332 0 
647 2 0 212.176 0 
417 2 35 212.176 0 
418 2 70 212.176 0 
419 2 105 212.176 0 
410 2 140 212.176 0 
411 2 175 212.176 0 
412 2 210 212.176 0 
413 2 245 212.176 0 
414 2 280 212.176 0 
415 2 315 212.176 0 
416 2 350 212.176 0 
663 2 -8.75 227.332 0 
278 1 7.48945 226.814 0 
324 1 -7.6743 226.502 0 
617 2 8.75 227.332 0 
517 2 26.25 227.332 0 
78 1 34.5286 214.245 0 
279 1 41.811 226.709 0 
618 2 43.75 227.332 0 
518 2 61.25 227.332 0 
79 1 69.6114 214.523 0 
280 1 76.8271 226.695 0 
619 2 78.75 227.332 0 
519 2 96.25 227.332 0 
80 1 104.532 214.088 0 
271 1 111.598 226.582 0 
610 2 113.75 227.332 0 
71 1 139.52 214.483 0 
510 2 131.25 227.332 0 
272 1 146.702 226.949 0 
611 2 148.75 227.332 0 
72 1 174.382 214.296 0 
511 2 166.25 227.332 0 
273 1 181.827 226.612 0 
612 2 183.75 227.332 0 
512 2 201.25 227.332 0 
73 1 209.564 214.338 0 
274 1 216.754 226.614 0 
613 2 218.75 227.332 0 
513 2 236.25 227.332 0 
74 1 244.481 214.207 0 
275 1 251.819 226.432 0 
614 2 253.75 227.332 0 
514 2 271.25 227.332 0 
75 1 279.441 214.187 0 
276 1 286.47 226.725 0 
615 2 288.75 227.332 0 
515 2 306.25 227.332 0 
76 1 314.312 213.819 0 
277 1 321.638 226.561 0 
616 2 323.75 227.332 0 
77 1 350.361 217.285 0 
516 2 341.25 227.332 0 
309 1 -18.072 237.522 0 
178 1 22.2499 229.698 0 
179 1 57.0724 229.818 0 
180 1 92.1367 229.788 0 
171 1 127.139 229.735 0 
172 1 161.946 229.753 0 
173 1 196.96 229.776 0 
174 1 232.167 229.77 0 
175 1 267.081 229.8 0 
176 1 301.995 229.59 0 
177 1 337.061 230.071 0 
648 2 -17.5 242.487 0 
87 1 17.0993 244.473 0 
426 2 17.5 242.487 0 
88 1 51.7974 244.312 0 
427 2 52.5 242.487 0 
89 1 86.9715 244.604 0 
428 2 87.5 242.487 0 
90 1 121.946 244.534 0 
429 2 122.5 242.487 0 
81 1 156.864 244.487 0 
420 2 157.5 242.487 0 
82 1 192.003 244.533 0 
421 2 192.5 242.487 0 
83 1 226.918 244.538 0 
422 2 227.5 242.487 0 
84 1 262.006 244.63 0 
423 2 262.5 242.487 0 
85 1 296.963 244.441 0 
424 2 297.5 242.487 0 
86 1 332.444 247.477 0 
425 2 332.5 242.487 0 
287 1 -13.1311 255.208 0 
626 2 -8.75 257.643 0 
187 1 5.57068 258.983 0 
526 2 8.75 257.643 0 
288 1 24.5322 257.334 0 
627 2 26.25 257.643 0 
188 1 39.5563 260.085 0 
527 2 43.75 257.643 0 
289 1 59.2431 256.939 0 
628 2 61.25 257.643 0 
189 1 74.5678 260.181 0 
528 2 78.75 257.643 0 
290 1 94.1657 257.105 0 