ITEM: TIMESTEP
0
ITEM: NUMBER OF ATOMS
440
ITEM: BOX BOUNDS ss ss pp
-3.6000000000000004e-02 3.0003600000000000e+02
-3.6000000000000004e-02 3.0003600000000000e+02
-2.0000000000000000e-02 2.0000000000000000e-02
ITEM: ATOMS id type x y z mux muy muz 
1 1 20 0 0 0 0 0.00175421 
2 1 50 0 0 0 0 0.00175421 
3 1 80 0 0 0 0 0.00175421 
4 1 110 0 0 0 0 0.00175421 
5 1 140 0 0 0 0 0.00175421 
11 1 20 30 0 0 0 0.00175421 
12 1 50 30 0 0 0 0.00175421 
13 1 80 30 0 0 0 0.00175421 
14 1 110 30 0 0 0 0.00175421 
15 1 140 30 0 0 0 0.00175421 
21 1 20 60 0 0 0 0.00175421 
22 1 50 60 0 0 0 0.00175421 
23 1 80 60 0 0 0 0.00175421 
24 1 110 60 0 0 0 0.00175421 
25 1 140 60 0 0 0 0.00175421 
31 1 20 90 0 0 0 0.00175421 
32 1 50 90 0 0 0 0.00175421 
33 1 80 90 0 0 0 0.00175421 
34 1 110 90 0 0 0 0.00175421 
35 1 140 90 0 0 0 0.00175421 
41 1 20 120 0 0 0 0.00175421 
42 1 50 120 0 0 0 0.00175421 
43 1 80 120 0 0 0 0.00175421 
44 1 110 120 0 0 0 0.00175421 
45 1 140 120 0 0 0 0.00175421 
51 1 20 150 0 0 0 0.00175421 
52 1 50 150 0 0 0 0.00175421 
53 1 80 150 0 0 0 0.00175421 
54 1 110 150 0 0 0 0.00175421 
55 1 140 150 0 0 0 0.00175421 
101 1 0 17.5 0 0 0 0.00175421 
102 1 30 17.5 0 0 0 0.00175421 
103 1 60 17.5 0 0 0 0.00175421 
104 1 90 17.5 0 0 0 0.00175421 
105 1 120 17.5 0 0 0 0.00175421 
106 1 150 17.5 0 0 0 0.00175421 
111 1 0 47.5 0 0 0 0.00175421 
112 1 30 47.5 0 0 0 0.00175421 
113 1 60 47.5 0 0 0 0.00175421 
114 1 90 47.5 0 0 0 0.00175421 
115 1 120 47.5 0 0 0 0.00175421 
116 1 150 47.5 0 0 0 0.00175421 
121 1 0 77.5 0 0 0 0.00175421 
122 1 30 77.5 0 0 0 0.00175421 
123 1 60 77.5 0 0 0 0.00175421 
124 1 90 77.5 0 0 0 0.00175421 
125 1 120 77.5 0 0 0 0.00175421 
126 1 150 77.5 0 0 0 0.00175421 
131 1 0 107.5 0 0 0 0.00175421 
132 1 30 107.5 0 0 0 0.00175421 
133 1 60 107.5 0 0 0 0.00175421 
134 1 90 107.5 0 0 0 0.00175421 
135 1 120 107.5 0 0 0 0.00175421 
136 1 150 107.5 0 0 0 0.00175421 
141 1 0 137.5 0 0 0 0.00175421 
142 1 30 137.5 0 0 0 0.00175421 
143 1 60 137.5 0 0 0 0.00175421 
144 1 90 137.5 0 0 0 0.00175421 
145 1 120 137.5 0 0 0 0.00175421 
146 1 150 137.5 0 0 0 0.00175421 
221 2 0 15 0 0 5 0 
222 2 30 15 0 0 5 0 
223 2 60 15 0 0 5 0 
224 2 90 15 0 0 5 0 
225 2 120 15 0 0 5 0 
226 2 150 15 0 0 5 0 
231 2 0 45 0 0 5 0 
232 2 30 45 0 0 5 0 
233 2 60 45 0 0 5 0 
234 2 90 45 0 0 5 0 
235 2 120 45 0 0 5 0 
236 2 150 45 0 0 5 0 
241 2 0 75 0 0 5 0 
242 2 30 75 0 0 5 0 
243 2 60 75 0 0 5 0 
244 2 90 75 0 0 5 0 
245 2 120 75 0 0 5 0 
246 2 150 75 0 0 5 0 
251 2 0 105 0 0 5 0 
252 2 30 105 0 0 5 0 
253 2 60 105 0 0 5 0 
254 2 90 105 0 0 5 0 
255 2 120 105 0 0 5 0 
256 2 150 105 0 0 5 0 
261 2 0 135 0 0 5 0 
262 2 30 135 0 0 5 0 
263 2 60 135 0 0 5 0 
264 2 90 135 0 0 5 0 
265 2 120 135 0 0 5 0 
266 2 150 135 0 0 5 0 
331 3 15 0 0 10 0 0 
332 3 45 0 0 10 0 0 
333 3 75 0 0 10 0 0 
334 3 105 0 0 10 0 0 
335 3 135 0 0 10 0 0 
341 3 15 30 0 10 0 0 
342 3 45 30 0 10 0 0 
343 3 75 30 0 10 0 0 
344 3 105 30 0 10 0 0 
345 3 135 30 0 10 0 0 
351 3 15 60 0 10 0 0 
352 3 45 60 0 10 0 0 
353 3 75 60 0 10 0 0 
354 3 105 60 0 10 0 0 
355 3 135 60 0 10 0 0 
361 3 15 90 0 10 0 0 
362 3 45 90 0 10 0 0 
363 3 75 90 0 10 0 0 
364 3 105 90 0 10 0 0 
365 3 135 90 0 10 0 0 
371 3 15 120 0 10 0 0 
372 3 45 120 0 10 0 0 
373 3 75 120 0 10 0 0 
374 3 105 120 0 10 0 0 
375 3 135 120 0 10 0 0 
381 3 15 150 0 10 0 0 
382 3 45 150 0 10 0 0 
383 3 75 150 0 10 0 0 
384 3 105 150 0 10 0 0 
385 3 135 150 0 10 0 0 
6 1 170 0 0 0 0 0.00175421 
7 1 200 0 0 0 0 0.00175421 
8 1 230 0 0 0 0 0.00175421 
9 1 260 0 0 0 0 0.00175421 
10 1 290 0 0 0 0 0.00175421 
16 1 170 30 0 0 0 0.00175421 
17 1 200 30 0 0 0 0.00175421 
18 1 230 30 0 0 0 0.00175421 
19 1 260 30 0 0 0 0.00175421 
20 1 290 30 0 0 0 0.00175421 
26 1 170 60 0 0 0 0.00175421 
27 1 200 60 0 0 0 0.00175421 
28 1 230 60 0 0 0 0.00175421 
29 1 260 60 0 0 0 0.00175421 
30 1 290 60 0 0 0 0.00175421 
36 1 170 90 0 0 0 0.00175421 
37 1 200 90 0 0 0 0.00175421 
38 1 230 90 0 0 0 0.00175421 
39 1 260 90 0 0 0 0.00175421 
40 1 290 90 0 0 0 0.00175421 
46 1 170 120 0 0 0 0.00175421 
47 1 200 120 0 0 0 0.00175421 
48 1 230 120 0 0 0 0.00175421 
49 1 260 120 0 0 0 0.00175421 
50 1 290 120 0 0 0 0.00175421 
56 1 170 150 0 0 0 0.00175421 
57 1 200 150 0 0 0 0.00175421 
58 1 230 150 0 0 0 0.00175421 
59 1 260 150 0 0 0 0.00175421 
60 1 290 150 0 0 0 0.00175421 
107 1 180 17.5 0 0 0 0.00175421 
108 1 210 17.5 0 0 0 0.00175421 
109 1 240 17.5 0 0 0 0.00175421 
110 1 270 17.5 0 0 0 0.00175421 
117 1 180 47.5 0 0 0 0.00175421 
118 1 210 47.5 0 0 0 0.00175421 
119 1 240 47.5 0 0 0 0.00175421 
120 1 270 47.5 0 0 0 0.00175421 
127 1 180 77.5 0 0 0 0.00175421 
128 1 210 77.5 0 0 0 0.00175421 
129 1 240 77.5 0 0 0 0.00175421 
130 1 270 77.5 0 0 0 0.00175421 
137 1 180 107.5 0 0 0 0.00175421 
138 1 210 107.5 0 0 0 0.00175421 
139 1 240 107.5 0 0 0 0.00175421 
140 1 270 107.5 0 0 0 0.00175421 
147 1 180 137.5 0 0 0 0.00175421 
148 1 210 137.5 0 0 0 0.00175421 
149 1 240 137.5 0 0 0 0.00175421 
150 1 270 137.5 0 0 0 0.00175421 
201 1 300 17.5 0 0 0 0.00175421 
202 1 300 47.5 0 0 0 0.00175421 
203 1 300 77.5 0 0 0 0.00175421 
204 1 300 107.5 0 0 0 0.00175421 
205 1 300 137.5 0 0 0 0.00175421 
227 2 180 15 0 0 5 0 
228 2 210 15 0 0 5 0 
229 2 240 15 0 0 5 0 
230 2 270 15 0 0 5 0 
237 2 180 45 0 0 5 0 
238 2 210 45 0 0 5 0 
239 2 240 45 0 0 5 0 
240 2 270 45 0 0 5 0 
247 2 180 75 0 0 5 0 
248 2 210 75 0 0 5 0 
249 2 240 75 0 0 5 0 
250 2 270 75 0 0 5 0 
257 2 180 105 0 0 5 0 
258 2 210 105 0 0 5 0 
259 2 240 105 0 0 5 0 
260 2 270 105 0 0 5 0 
267 2 180 135 0 0 5 0 
268 2 210 135 0 0 5 0 
269 2 240 135 0 0 5 0 
270 2 270 135 0 0 5 0 
321 2 300 15 0 0 5 0 
322 2 300 45 0 0 5 0 
323 2 300 75 0 0 5 0 
324 2 300 105 0 0 5 0 
325 2 300 135 0 0 5 0 
336 3 165 0 0 10 0 0 
337 3 195 0 0 10 0 0 
338 3 225 0 0 10 0 0 
339 3 255 0 0 10 0 0 
340 3 285 0 0 10 0 0 
346 3 165 30 0 10 0 0 
347 3 195 30 0 10 0 0 
348 3 225 30 0 10 0 0 
349 3 255 30 0 10 0 0 
350 3 285 30 0 10 0 0 
356 3 165 60 0 10 0 0 
357 3 195 60 0 10 0 0 
358 3 225 60 0 10 0 0 
359 3 255 60 0 10 0 0 
360 3 285 60 0 10 0 0 
366 3 165 90 0 10 0 0 
367 3 195 90 0 10 0 0 
368 3 225 90 0 10 0 0 
369 3 255 90 0 10 0 0 
370 3 285 90 0 10 0 0 
376 3 165 120 0 10 0 0 
377 3 195 120 0 10 0 0 
378 3 225 120 0 10 0 0 
379 3 255 120 0 10 0 0 
380 3 285 120 0 10 0 0 
386 3 165 150 0 10 0 0 
387 3 195 150 0 10 0 0 
388 3 225 150 0 10 0 0 
389 3 255 150 0 10 0 0 
390 3 285 150 0 10 0 0 
61 1 20 180 0 0 0 0.00175421 
62 1 50 180 0 0 0 0.00175421 
63 1 80 180 0 0 0 0.00175421 
64 1 110 180 0 0 0 0.00175421 
65 1 140 180 0 0 0 0.00175421 
71 1 20 210 0 0 0 0.00175421 
72 1 50 210 0 0 0 0.00175421 
73 1 80 210 0 0 0 0.00175421 
74 1 110 210 0 0 0 0.00175421 
75 1 140 210 0 0 0 0.00175421 
81 1 20 240 0 0 0 0.00175421 
82 1 50 240 0 0 0 0.00175421 
83 1 80 240 0 0 0 0.00175421 
84 1 110 240 0 0 0 0.00175421 
85 1 140 240 0 0 0 0.00175421 
91 1 20 270 0 0 0 0.00175421 
92 1 50 270 0 0 0 0.00175421 
93 1 80 270 0 0 0 0.00175421 
94 1 110 270 0 0 0 0.00175421 
95 1 140 270 0 0 0 0.00175421 
151 1 0 167.5 0 0 0 0.00175421 
152 1 30 167.5 0 0 0 0.00175421 
153 1 60 167.5 0 0 0 0.00175421 
154 1 90 167.5 0 0 0 0.00175421 
155 1 120 167.5 0 0 0 0.00175421 
156 1 150 167.5 0 0 0 0.00175421 
161 1 0 197.5 0 0 0 0.00175421 
162 1 30 197.5 0 0 0 0.00175421 
163 1 60 197.5 0 0 0 0.00175421 
164 1 90 197.5 0 0 0 0.00175421 
165 1 120 197.5 0 0 0 0.00175421 
166 1 150 197.5 0 0 0 0.00175421 
171 1 0 227.5 0 0 0 0.00175421 
172 1 30 227.5 0 0 0 0.00175421 
173 1 60 227.5 0 0 0 0.00175421 
174 1 90 227.5 0 0 0 0.00175421 
175 1 120 227.5 0 0 0 0.00175421 
176 1 150 227.5 0 0 0 0.00175421 
181 1 0 257.5 0 0 0 0.00175421 
182 1 30 257.5 0 0 0 0.00175421 
183 1 60 257.5 0 0 0 0.00175421 
184 1 90 257.5 0 0 0 0.00175421 
185 1 120 257.5 0 0 0 0.00175421 
186 1 150 257.5 0 0 0 0.00175421 
191 1 0 287.5 0 0 0 0.00175421 
192 1 30 287.5 0 0 0 0.00175421 
193 1 60 287.5 0 0 0 0.00175421 
194 1 90 287.5 0 0 0 0.00175421 
195 1 120 287.5 0 0 0 0.00175421 
196 1 150 287.5 0 0 0 0.00175421 
211 1 20 300 0 0 0 0.00175421 
212 1 50 300 0 0 0 0.00175421 
213 1 80 300 0 0 0 0.00175421 
214 1 110 300 0 0 0 0.00175421 
215 1 140 300 0 0 0 0.00175421 
271 2 0 165 0 0 5 0 
272 2 30 165 0 0 5 0 
273 2 60 165 0 0 5 0 
274 2 90 165 0 0 5 0 
275 2 120 165 0 0 5 0 
276 2 150 165 0 0 5 0 
281 2 0 195 0 0 5 0 
282 2 30 195 0 0 5 0 
283 2 60 195 0 0 5 0 
284 2 90 195 0 0 5 0 
285 2 120 195 0 0 5 0 
286 2 150 195 0 0 5 0 
291 2 0 225 0 0 5 0 
292 2 30 225 0 0 5 0 
293 2 60 225 0 0 5 0 
294 2 90 225 0 0 5 0 
295 2 120 225 0 0 5 0 
296 2 150 225 0 0 5 0 
301 2 0 255 0 0 5 0 
302 2 30 255 0 0 5 0 
303 2 60 255 0 0 5 0 
304 2 90 255 0 0 5 0 
305 2 120 255 0 0 5 0 
306 2 150 255 0 0 5 0 
311 2 0 285 0 0 5 0 
312 2 30 285 0 0 5 0 
313 2 60 285 0 0 5 0 
314 2 90 285 0 0 5 0 
315 2 120 285 0 0 5 0 
316 2 150 285 0 0 5 0 
391 3 15 180 0 10 0 0 
392 3 45 180 0 10 0 0 
393 3 75 180 0 10 0 0 
394 3 105 180 0 10 0 0 
395 3 135 180 0 10 0 0 
401 3 15 210 0 10 0 0 
402 3 45 210 0 10 0 0 
403 3 75 210 0 10 0 0 
404 3 105 210 0 10 0 0 
405 3 135 210 0 10 0 0 
411 3 15 240 0 10 0 0 
412 3 45 240 0 10 0 0 
413 3 75 240 0 10 0 0 
414 3 105 240 0 10 0 0 
415 3 135 240 0 10 0 0 
421 3 15 270 0 10 0 0 
422 3 45 270 0 10 0 0 
423 3 75 270 0 10 0 0 
424 3 105 270 0 10 0 0 
425 3 135 270 0 10 0 0 
431 3 15 300 0 10 0 0 
432 3 45 300 0 10 0 0 
433 3 75 300 0 10 0 0 
434 3 105 300 0 10 0 0 
435 3 135 300 0 10 0 0 
66 1 170 180 0 0 0 0.00175421 
67 1 200 180 0 0 0 0.00175421 
68 1 230 180 0 0 0 0.00175421 
69 1 260 180 0 0 0 0.00175421 
70 1 290 180 0 0 0 0.00175421 
76 1 170 210 0 0 0 0.00175421 
77 1 200 210 0 0 0 0.00175421 
78 1 230 210 0 0 0 0.00175421 
79 1 260 210 0 0 0 0.00175421 
80 1 290 210 0 0 0 0.00175421 
86 1 170 240 0 0 0 0.00175421 
87 1 200 240 0 0 0 0.00175421 
88 1 230 240 0 0 0 0.00175421 
89 1 260 240 0 0 0 0.00175421 
90 1 290 240 0 0 0 0.00175421 
96 1 170 270 0 0 0 0.00175421 
97 1 200 270 0 0 0 0.00175421 
98 1 230 270 0 0 0 0.00175421 
99 1 260 270 0 0 0 0.00175421 
100 1 290 270 0 0 0 0.00175421 
157 1 180 167.5 0 0 0 0.00175421 
158 1 210 167.5 0 0 0 0.00175421 
159 1 240 167.5 0 0 0 0.00175421 
160 1 270 167.5 0 0 0 0.00175421 
167 1 180 197.5 0 0 0 0.00175421 
168 1 210 197.5 0 0 0 0.00175421 
169 1 240 197.5 0 0 0 0.00175421 
170 1 270 197.5 0 0 0 0.00175421 
177 1 180 227.5 0 0 0 0.00175421 
178 1 210 227.5 0 0 0 0.00175421 
179 1 240 227.5 0 0 0 0.00175421 
180 1 270 227.5 0 0 0 0.00175421 
187 1 180 257.5 0 0 0 0.00175421 
188 1 210 257.5 0 0 0 0.00175421 
189 1 240 257.5 0 0 0 0.00175421 
190 1 270 257.5 0 0 0 0.00175421 
197 1 180 287.5 0 0 0 0.00175421 
198 1 210 287.5 0 0 0 0.00175421 
199 1 240 287.5 0 0 0 0.00175421 
200 1 270 287.5 0 0 0 0.00175421 
206 1 300 167.5 0 0 0 0.00175421 
207 1 300 197.5 0 0 0 0.00175421 
208 1 300 227.5 0 0 0 0.00175421 
209 1 300 257.5 0 0 0 0.00175421 
210 1 300 287.5 0 0 0 0.00175421 
216 1 170 300 0 0 0 0.00175421 
217 1 200 300 0 0 0 0.00175421 
218 1 230 300 0 0 0 0.00175421 
219 1 260 300 0 0 0 0.00175421 
220 1 290 300 0 0 0 0.00175421 
277 2 180 165 0 0 5 0 
278 2 210 165 0 0 5 0 
279 2 240 165 0 0 5 0 
280 2 270 165 0 0 5 0 
287 2 180 195 0 0 5 0 
288 2 210 195 0 0 5 0 
289 2 240 195 0 0 5 0 
290 2 270 195 0 0 5 0 
297 2 180 225 0 0 5 0 
298 2 210 225 0 0 5 0 
299 2 240 225 0 0 5 0 
300 2 270 225 0 0 5 0 
307 2 180 255 0 0 5 0 
308 2 210 255 0 0 5 0 
309 2 240 255 0 0 5 0 
310 2 270 255 0 0 5 0 
317 2 180 285 0 0 5 0 
318 2 210 285 0 0 5 0 
319 2 240 285 0 0 5 0 
320 2 270 285 0 0 5 0 
326 2 300 165 0 0 5 0 
327 2 300 195 0 0 5 0 
328 2 300 225 0 0 5 0 
329 2 300 255 0 0 5 0 
330 2 300 285 0 0 5 0 
396 3 165 180 0 10 0 0 
397 3 195 180 0 10 0 0 
398 3 225 180 0 10 0 0 
399 3 255 180 0 10 0 0 
400 3 285 180 0 10 0 0 
406 3 165 210 0 10 0 0 
407 3 195 210 0 10 0 0 
408 3 225 210 0 10 0 0 
409 3 255 210 0 10 0 0 
410 3 285 210 0 10 0 0 
416 3 165 240 0 10 0 0 
417 3 195 240 0 10 0 0 
418 3 225 240 0 10 0 0 
419 3 255 240 0 10 0 0 
420 3 285 240 0 10 0 0 
426 3 165 270 0 10 0 0 
427 3 195 270 0 10 0 0 
428 3 225 270 0 10 0 0 
429 3 255 270 0 10 0 0 
430 3 285 270 0 10 0 0 
436 3 165 300 0 10 0 0 
437 3 195 300 0 10 0 0 
438 3 225 300 0 10 0 0 
439 3 255 300 0 10 0 0 
440 3 285 300 0 10 0 0 
ITEM: TIMESTEP
10
ITEM: NUMBER OF ATOMS
440
ITEM: BOX BOUNDS ss ss pp
-9.1949087485293823e-01 3.0152499271502876e+02
-1.0958718842880664e+00 3.0147435395239171e+02
-2.0000000000000000e-02 2.0000000000000000e-02
ITEM: ATOMS id type x y z mux muy muz 
1 1 19.1987 -0.93962 0 0 0 0.00175421 
2 1 49.5575 -1.04323 0 0 0 0.00175421 
3 1 79.8082 -1.12845 0 0 0 0.00175421 
4 1 109.73 -0.98784 0 0 0 0.00175421 
5 1 139.858 -1.04895 0 0 0 0.00175421 
11 1 18.1824 30.1795 0 0 0 0.00175421 
12 1 48.577 30.1953 0 0 0 0.00175421 
13 1 78.6629 30.305 0 0 0 0.00175421 
14 1 108.832 30.2287 0 0 0 0.00175421 
15 1 138.884 30.225 0 0 0 0.00175421 
21 1 18.0501 60.478 0 0 0 0.00175421 
22 1 48.519 60.5428 0 0 0 0.00175421 
23 1 78.5509 60.4504 0 0 0 0.00175421 
24 1 108.506 60.2312 0 0 0 0.00175421 
25 1 138.532 60.3261 0 0 0 0.00175421 
31 1 17.9434 90.4639 0 0 0 0.00175421 
32 1 48.588 90.5456 0 0 0 0.00175421 
33 1 78.8269 90.3889 0 0 0 0.00175421 
34 1 108.58 90.3786 0 0 0 0.00175421 
35 1 138.56 90.4495 0 0 0 0.00175421 
41 1 18.203 120.463 0 0 0 0.00175421 
42 1 48.5849 120.398 0 0 0 0.00175421 
43 1 78.6507 120.33 0 0 0 0.00175421 
44 1 108.519 120.306 0 0 0 0.00175421 
45 1 138.689 120.52 0 0 0 0.00175421 
51 1 18.1884 150.285 0 0 0 0.00175421 
52 1 48.516 150.511 0 0 0 0.00175421 
53 1 78.5545 150.406 0 0 0 0.00175421 
54 1 108.759 150.599 0 0 0 0.00175421 
55 1 138.721 150.384 0 0 0 0.00175421 
101 1 -0.688287 17.2475 0 0 0 0.00175421 
102 1 30.5024 16.3369 0 0 0 0.00175421 
103 1 60.6025 16.0814 0 0 0 0.00175421 
104 1 90.6044 16.04 0 0 0 0.00175421 
105 1 120.494 15.9935 0 0 0 0.00175421 
106 1 150.632 15.9966 0 0 0 0.00175421 
111 1 -0.873822 47.5287 0 0 0 0.00175421 
112 1 30.4773 46.7067 0 0 0 0.00175421 
113 1 60.6355 46.6475 0 0 0 0.00175421 
114 1 90.542 46.7487 0 0 0 0.00175421 
115 1 120.777 46.4765 0 0 0 0.00175421 
116 1 150.555 46.5183 0 0 0 0.00175421 
121 1 -0.898134 77.4055 0 0 0 0.00175421 
122 1 30.4678 76.7095 0 0 0 0.00175421 
123 1 60.6243 76.787 0 0 0 0.00175421 
124 1 90.7229 76.5882 0 0 0 0.00175421 
125 1 120.779 76.6582 0 0 0 0.00175421 
126 1 150.697 76.652 0 0 0 0.00175421 
131 1 -0.800379 107.484 0 0 0 0.00175421 
132 1 30.4914 106.709 0 0 0 0.00175421 
133 1 60.4258 106.701 0 0 0 0.00175421 
134 1 90.7474 106.825 0 0 0 0.00175421 
135 1 120.737 106.756 0 0 0 0.00175421 
136 1 150.743 106.711 0 0 0 0.00175421 
141 1 -0.768683 137.431 0 0 0 0.00175421 
142 1 30.3458 136.836 0 0 0 0.00175421 
143 1 60.5952 136.776 0 0 0 0.00175421 
144 1 90.6488 136.727 0 0 0 0.00175421 
145 1 120.492 136.757 0 0 0 0.00175421 
146 1 150.704 136.55 0 0 0 0.00175421 
221 2 0 15 0 0 5 0 
222 2 30 15 0 0 5 0 
223 2 60 15 0 0 5 0 
224 2 90 15 0 0 5 0 
225 2 120 15 0 0 5 0 
226 2 150 15 0 0 5 0 
231 2 0 45 0 0 5 0 
232 2 30 45 0 0 5 0 
233 2 60 45 0 0 5 0 
234 2 90 45 0 0 5 0 
235 2 120 45 0 0 5 0 
236 2 150 45 0 0 5 0 
241 2 0 75 0 0 5 0 
242 2 30 75 0 0 5 0 
243 2 60 75 0 0 5 0 
244 2 90 75 0 0 5 0 
245 2 120 75 0 0 5 0 
246 2 150 75 0 0 5 0 
251 2 0 105 0 0 5 0 
252 2 30 105 0 0 5 0 
253 2 60 105 0 0 5 0 
254 2 90 105 0 0 5 0 
255 2 120 105 0 0 5 0 
256 2 150 105 0 0 5 0 
261 2 0 135 0 0 5 0 
262 2 30 135 0 0 5 0 
263 2 60 135 0 0 5 0 
264 2 90 135 0 0 5 0 
265 2 120 135 0 0 5 0 
266 2 150 135 0 0 5 0 
331 3 15 0 0 10 0 0 
332 3 45 0 0 10 0 0 
333 3 75 0 0 10 0 0 
334 3 105 0 0 10 0 0 
335 3 135 0 0 10 0 0 
341 3 15 30 0 10 0 0 
342 3 45 30 0 10 0 0 
343 3 75 30 0 10 0 0 
344 3 105 30 0 10 0 0 
345 3 135 30 0 10 0 0 
351 3 15 60 0 10 0 0 
352 3 45 60 0 10 0 0 
353 3 75 60 0 10 0 0 
354 3 105 60 0 10 0 0 
355 3 135 60 0 10 0 0 
361 3 15 90 0 10 0 0 
362 3 45 90 0 10 0 0 
363 3 75 90 0 10 0 0 
364 3 105 90 0 10 0 0 
365 3 135 90 0 10 0 0 
371 3 15 120 0 10 0 0 
372 3 45 120 0 10 0 0 
373 3 75 120 0 10 0 0 
374 3 105 120 0 10 0 0 
375 3 135 120 0 10 0 0 
381 3 15 150 0 10 0 0 
382 3 45 150 0 10 0 0 
383 3 75 150 0 10 0 0 
384 3 105 150 0 10 0 0 
385 3 135 150 0 10 0 0 
6 1 169.626 -1.12053 0 0 0 0.00175421 
7 1 199.995 -1.06978 0 0 0 0.00175421 
8 1 229.708 -1.04072 0 0 0 0.00175421 
9 1 259.843 -0.979199 0 0 0 0.00175421 
10 1 289.941 -0.906528 0 0 0 0.00175421 
16 1 168.605 30.297 0 0 0 0.00175421 
17 1 198.58 30.1322 0 0 0 0.00175421 
18 1 228.658 30.182 0 0 0 0.00175421 
19 1 258.804 30.3452 0 0 0 0.00175421 
20 1 289.063 30.1608 0 0 0 0.00175421 
26 1 168.502 60.3211 0 0 0 0.00175421 
27 1 198.632 60.3172 0 0 0 0.00175421 
28 1 228.803 60.3712 0 0 0 0.00175421 
29 1 258.966 60.3244 0 0 0 0.00175421 
30 1 289.3 60.4328 0 0 0 0.00175421 
36 1 168.602 90.4773 0 0 0 0.00175421 
37 1 198.684 90.2822 0 0 0 0.00175421 
38 1 228.575 90.4572 0 0 0 0.00175421 
39 1 258.716 90.4046 0 0 0 0.00175421 
40 1 289.385 90.3416 0 0 0 0.00175421 
46 1 168.687 120.373 0 0 0 0.00175421 
47 1 198.521 120.274 0 0 0 0.00175421 
48 1 228.857 120.329 0 0 0 0.00175421 
49 1 258.723 120.433 0 0 0 0.00175421 
50 1 289.336 120.39 0 0 0 0.00175421 
56 1 168.482 150.376 0 0 0 0.00175421 
57 1 198.925 150.463 0 0 0 0.00175421 
58 1 228.498 150.302 0 0 0 0.00175421 
59 1 258.879 150.52 0 0 0 0.00175421 
60 1 289.385 150.402 0 0 0 0.00175421 
107 1 180.67 16.0749 0 0 0 0.00175421 
108 1 210.625 16.2878 0 0 0 0.00175421 
109 1 240.622 16.1096 0 0 0 0.00175421 
110 1 270.588 16.0303 0 0 0 0.00175421 
117 1 180.64 46.68 0 0 0 0.00175421 
118 1 210.685 46.7426 0 0 0 0.00175421 
119 1 240.656 46.7105 0 0 0 0.00175421 
120 1 270.86 46.6393 0 0 0 0.00175421 
127 1 180.607 76.7905 0 0 0 0.00175421 
128 1 210.797 76.7061 0 0 0 0.00175421 
129 1 240.775 76.7775 0 0 0 0.00175421 
130 1 270.815 76.8768 0 0 0 0.00175421 
137 1 180.68 106.601 0 0 0 0.00175421 
138 1 210.633 106.48 0 0 0 0.00175421 
139 1 240.741 106.612 0 0 0 0.00175421 
140 1 270.805 106.591 0 0 0 0.00175421 
147 1 180.761 136.671 0 0 0 0.00175421 
148 1 210.791 136.595 0 0 0 0.00175421 
149 1 240.668 136.897 0 0 0 0.00175421 
150 1 270.817 136.496 0 0 0 0.00175421 
201 1 301.266 16.3319 0 0 0 0.00175421 
202 1 301.373 46.7138 0 0 0 0.00175421 
203 1 301.438 76.9038 0 0 0 0.00175421 
204 1 301.555 106.648 0 0 0 0.00175421 
205 1 301.54 136.676 0 0 0 0.00175421 
227 2 180 15 0 0 5 0 
228 2 210 15 0 0 5 0 
229 2 240 15 0 0 5 0 
230 2 270 15 0 0 5 0 
237 2 180 45 0 0 5 0 
238 2 210 45 0 0 5 0 
239 2 240 45 0 0 5 0 
240 2 270 45 0 0 5 0 
247 2 180 75 0 0 5 0 
248 2 210 75 0 0 5 0 
249 2 240 75 0 0 5 0 
250 2 270 75 0 0 5 0 
257 2 180 105 0 0 5 0 
258 2 210 105 0 0 5 0 
259 2 240 105 0 0 5 0 
260 2 270 105 0 0 5 0 
267 2 180 135 0 0 5 0 
268 2 210 135 0 0 5 0 
269 2 240 135 0 0 5 0 
270 2 270 135 0 0 5 0 
321 2 300 15 0 0 5 0 
322 2 300 45 0 0 5 0 
323 2 300 75 0 0 5 0 
324 2 300 105 0 0 5 0 
325 2 300 135 0 0 5 0 
336 3 165 0 0 10 0 0 
337 3 195 0 0 10 0 0 
338 3 225 0 0 10 0 0 
339 3 255 0 0 10 0 0 
340 3 285 0 0 10 0 0 
346 3 165 30 0 10 0 0 
347 3 195 30 0 10 0 0 
348 3 225 30 0 10 0 0 
349 3 255 30 0 10 0 0 
350 3 285 30 0 10 0 0 
356 3 165 60 0 10 0 0 
357 3 195 60 0 10 0 0 
358 3 225 60 0 10 0 0 
359 3 255 60 0 10 0 0 
360 3 285 60 0 10 0 0 
366 3 165 90 0 10 0 0 
367 3 195 90 0 10 0 0 
368 3 225 90 0 10 0 0 
369 3 255 90 0 10 0 0 
370 3 285 90 0 10 0 0 
376 3 165 120 0 10 0 0 
377 3 195 120 0 10 0 0 
378 3 225 120 0 10 0 0 
379 3 255 120 0 10 0 0 
380 3 285 120 0 10 0 0 
386 3 165 150 0 10 0 0 
387 3 195 150 0 10 0 0 
388 3 225 150 0 10 0 0 
389 3 255 150 0 10 0 0 
390 3 285 150 0 10 0 0 
61 1 17.9635 180.477 0 0 0 0.00175421 
62 1 48.754 180.32 0 0 0 0.00175421 
63 1 78.4516 180.495 0 0 0 0.00175421 
64 1 108.845 180.381 0 0 0 0.00175421 
65 1 138.68 180.325 0 0 0 0.00175421 
71 1 17.8638 210.293 0 0 0 0.00175421 
72 1 48.6826 210.468 0 0 0 0.00175421 
73 1 78.5423 210.415 0 0 0 0.00175421 
74 1 108.731 210.371 0 0 0 0.00175421 
75 1 139.002 210.525 0 0 0 0.00175421 
81 1 18.6177 240.435 0 0 0 0.00175421 
82 1 48.7793 240.445 0 0 0 0.00175421 
83 1 78.5566 240.314 0 0 0 0.00175421 
84 1 108.536 240.51 0 0 0 0.00175421 
85 1 138.565 240.485 0 0 0 0.00175421 
91 1 18.008 270.332 0 0 0 0.00175421 
92 1 48.5682 270.542 0 0 0 0.00175421 
93 1 78.7587 270.619 0 0 0 0.00175421 
94 1 108.734 270.512 0 0 0 0.00175421 
95 1 138.678 270.551 0 0 0 0.00175421 
151 1 -0.802534 167.546 0 0 0 0.00175421 
152 1 30.4297 166.409 0 0 0 0.00175421 
153 1 60.5353 166.565 0 0 0 0.00175421 
154 1 90.5337 166.657 0 0 0 0.00175421 
155 1 120.65 166.89 0 0 0 0.00175421 
156 1 150.746 166.944 0 0 0 0.00175421 
161 1 -0.799302 197.573 0 0 0 0.00175421 
162 1 30.4039 196.462 0 0 0 0.00175421 
163 1 60.6211 196.595 0 0 0 0.00175421 
164 1 90.6892 196.723 0 0 0 0.00175421 
165 1 120.618 196.604 0 0 0 0.00175421 
166 1 150.715 196.723 0 0 0 0.00175421 
171 1 -0.731887 227.531 0 0 0 0.00175421 
172 1 30.3702 226.462 0 0 0 0.00175421 
173 1 60.6417 226.762 0 0 0 0.00175421 
174 1 90.623 226.79 0 0 0 0.00175421 
175 1 120.557 226.914 0 0 0 0.00175421 
176 1 150.639 226.81 0 0 0 0.00175421 
181 1 -0.737152 257.491 0 0 0 0.00175421 
182 1 30.466 256.827 0 0 0 0.00175421 
183 1 60.6165 256.886 0 0 0 0.00175421 
184 1 90.4562 256.755 0 0 0 0.00175421 
185 1 120.794 256.908 0 0 0 0.00175421 
186 1 150.679 256.914 0 0 0 0.00175421 
191 1 -0.689701 287.967 0 0 0 0.00175421 
192 1 30.485 287.308 0 0 0 0.00175421 
193 1 60.662 287.417 0 0 0 0.00175421 
194 1 90.5595 287.062 0 0 0 0.00175421 
195 1 120.627 287.145 0 0 0 0.00175421 
196 1 150.6 287.185 0 0 0 0.00175421 
211 1 18.7632 301.297 0 0 0 0.00175421 
212 1 48.9381 301.47 0 0 0 0.00175421 
213 1 79.1526 301.345 0 0 0 0.00175421 
214 1 109.163 301.49 0 0 0 0.00175421 
215 1 139.071 301.355 0 0 0 0.00175421 
271 2 0 165 0 0 5 0 
272 2 30 165 0 0 5 0 
273 2 60 165 0 0 5 0 
274 2 90 165 0 0 5 0 
275 2 120 165 0 0 5 0 
276 2 150 165 0 0 5 0 
281 2 0 195 0 0 5 0 
282 2 30 195 0 0 5 0 
283 2 60 195 0 0 5 0 
284 2 90 195 0 0 5 0 
285 2 120 195 0 0 5 0 
286 2 150 195 0 0 5 0 
291 2 0 225 0 0 5 0 
292 2 30 225 0 0 5 0 
293 2 60 225 0 0 5 0 
294 2 90 225 0 0 5 0 
295 2 120 225 0 0 5 0 
296 2 150 225 0 0 5 0 
301 2 0 255 0 0 5 0 
302 2 30 255 0 0 5 0 
303 2 60 255 0 0 5 0 
304 2 90 255 0 0 5 0 
305 2 120 255 0 0 5 0 
306 2 150 255 0 0 5 0 
311 2 0 285 0 0 5 0 
312 2 30 285 0 0 5 0 
313 2 60 285 0 0 5 0 
314 2 90 285 0 0 5 0 
315 2 120 285 0 0 5 0 
316 2 150 285 0 0 5 0 
391 3 15 180 0 10 0 0 
392 3 45 180 0 10 0 0 
393 3 75 180 0 10 0 0 
394 3 105 180 0 10 0 0 
395 3 135 180 0 10 0 0 
401 3 15 210 0 10 0 0 
402 3 45 210 0 10 0 0 
403 3 75 210 0 10 0 0 
404 3 105 210 0 10 0 0 
405 3 135 210 0 10 0 0 
411 3 15 240 0 10 0 0 
412 3 45 240 0 10 0 0 
413 3 75 240 0 10 0 0 
414 3 105 240 0 10 0 0 
415 3 135 240 0 10 0 0 
421 3 15 270 0 10 0 0 
422 3 45 270 0 10 0 0 
423 3 75 270 0 10 0 0 
424 3 105 270 0 10 0 0 
425 3 135 270 0 10 0 0 
431 3 15 300 0 10 0 0 
432 3 45 300 0 10 0 0 
433 3 75 300 0 10 0 0 
434 3 105 300 0 10 0 0 
435 3 135 300 0 10 0 0 
66 1 168.424 180.57 0 0 0 0.00175421 
67 1 198.794 180.457 0 0 0 0.00175421 
68 1 228.826 180.38 0 0 0 0.00175421 
69 1 258.989 180.353 0 0 0 0.00175421 
70 1 289.141 180.462 0 0 0 0.00175421 
76 1 168.636 210.518 0 0 0 0.00175421 
77 1 198.568 210.499 0 0 0 0.00175421 
78 1 228.705 210.317 0 0 0 0.00175421 
79 1 259.041 210.422 0 0 0 0.00175421 
80 1 289.398 210.492 0 0 0 0.00175421 
86 1 168.755 240.321 0 0 0 0.00175421 
87 1 198.886 240.475 0 0 0 0.00175421 
88 1 228.596 240.391 0 0 0 0.00175421 
89 1 258.658 240.511 0 0 0 0.00175421 
90 1 289.318 240.384 0 0 0 0.00175421 
96 1 168.739 270.554 0 0 0 0.00175421 
97 1 198.744 270.648 0 0 0 0.00175421 
98 1 228.644 270.468 0 0 0 0.00175421 
99 1 258.839 270.485 0 0 0 0.00175421 
100 1 289.463 270.604 0 0 0 0.00175421 
157 1 180.676 166.782 0 0 0 0.00175421 
158 1 210.672 166.938 0 0 0 0.00175421 
159 1 240.673 166.454 0 0 0 0.00175421 
160 1 270.872 166.677 0 0 0 0.00175421 
167 1 180.716 196.876 0 0 0 0.00175421 
168 1 210.716 196.79 0 0 0 0.00175421 
169 1 240.79 196.844 0 0 0 0.00175421 
170 1 270.761 196.768 0 0 0 0.00175421 
177 1 180.698 226.96 0 0 0 0.00175421 
178 1 210.691 226.475 0 0 0 0.00175421 
179 1 240.619 226.837 0 0 0 0.00175421 
180 1 270.726 226.823 0 0 0 0.00175421 
187 1 180.625 256.832 0 0 0 0.00175421 
188 1 210.63 256.951 0 0 0 0.00175421 
189 1 240.77 256.827 0 0 0 0.00175421 
190 1 270.816 256.912 0 0 0 0.00175421 
197 1 180.611 287.355 0 0 0 0.00175421 
198 1 210.748 287.318 0 0 0 0.00175421 
199 1 240.659 287.427 0 0 0 0.00175421 
200 1 270.706 287.21 0 0 0 0.00175421 
206 1 301.409 166.878 0 0 0 0.00175421 
207 1 301.498 197.013 0 0 0 0.00175421 
208 1 301.471 226.909 0 0 0 0.00175421 
209 1 301.432 256.853 0 0 0 0.00175421 
210 1 301.615 287.452 0 0 0 0.00175421 
216 1 169.122 301.403 0 0 0 0.00175421 
217 1 199.248 301.495 0 0 0 0.00175421 
218 1 229.079 301.37 0 0 0 0.00175421 
219 1 259.245 301.455 0 0 0 0.00175421 
220 1 289.658 301.44 0 0 0 0.00175421 
277 2 180 165 0 0 5 0 
278 2 210 165 0 0 5 0 
279 2 240 165 0 0 5 0 
280 2 270 165 0 0 5 0 
287 2 180 195 0 0 5 0 
288 2 210 195 0 0 5 0 
289 2 240 195 0 0 5 0 
290 2 270 195 0 0 5 0 
297 2 180 225 0 0 5 0 
298 2 210 225 0 0 5 0 
299 2 240 225 0 0 5 0 
300 2 270 225 0 0 5 0 
307 2 180 255 0 0 5 0 
308 2 210 255 0 0 5 0 
309 2 240 255 0 0 5 0 
310 2 270 255 0 0 5 0 
317 2 180 285 0 0 5 0 
318 2 210 285 0 0 5 0 
319 2 240 285 0 0 5 0 
320 2 270 285 0 0 5 0 
326 2 300 165 0 0 5 0 
327 2 300 195 0 0 5 0 
328 2 300 225 0 0 5 0 
329 2 300 255 0 0 5 0 
330 2 300 285 0 0 5 0 
396 3 165 180 0 10 0 0 
397 3 195 180 0 10 0 0 
398 3 225 180 0 10 0 0 
399 3 255 180 0 10 0 0 
400 3 285 180 0 10 0 0 
406 3 165 210 0 10 0 0 
407 3 195 210 0 10 0 0 
408 3 225 210 0 10 0 0 
409 3 255 210 0 10 0 0 
410 3 285 210 0 10 0 0 
416 3 165 240 0 10 0 0 
417 3 195 240 0 10 0 0 
418 3 225 240 0 10 0 0 
419 3 255 240 0 10 0 0 
420 3 285 240 0 10 0 0 
426 3 165 270 0 10 0 0 
427 3 195 270 0 10 0 0 
428 3 225 270 0 10 0 0 
429 3 255 270 0 10 0 0 
430 3 285 270 0 10 0 0 
436 3 165 300 0 10 0 0 
437 3 195 300 0 10 0 0 
438 3 225 300 0 10 0 0 
439 3 255 300 0 10 0 0 
440 3 285 300 0 10 0 0 
ITEM: TIMESTEP
20
ITEM: NUMBER OF ATOMS
440
ITEM: BOX BOUNDS ss ss pp
-1.1505173077939568e+00 3.0173196880831415e+02
-1.4380525902917969e+00 3.0167511919743947e+02
-2.0000000000000000e-02 2.0000000000000000e-02
ITEM: ATOMS id type x y z mux muy muz 
1 1 18.187 -1.16664 0 0 0 0.00175421 
2 1 48.9956 -1.28814 0 0 0 0.00175421 
3 1 79.4918 -1.23556 0 0 0 0.00175421 
4 1 109.341 -1.20322 0 0 0 0.00175421 
5 1 139.681 -1.35742 0 0 0 0.00175421 
11 1 16.9421 30.136 0 0 0 0.00175421 
12 1 47.8203 30.136 0 0 0 0.00175421 
13 1 77.6521 30.0278 0 0 0 0.00175421 
14 1 107.736 29.992 0 0 0 0.00175421 
15 1 137.963 30.0822 0 0 0 0.00175421 
21 1 16.8149 60.4021 0 0 0 0.00175421 
22 1 47.7492 60.2523 0 0 0 0.00175421 
23 1 77.284 60.2929 0 0 0 0.00175421 
24 1 107.586 60.0682 0 0 0 0.00175421 
25 1 137.74 60.2601 0 0 0 0.00175421 
31 1 16.4821 90.2311 0 0 0 0.00175421 
32 1 47.8427 90.3811 0 0 0 0.00175421 
33 1 78.0613 90.1821 0 0 0 0.00175421 
34 1 107.864 90.2813 0 0 0 0.00175421 
35 1 137.809 90.2537 0 0 0 0.00175421 
41 1 16.5025 120.19 0 0 0 0.00175421 
42 1 47.5142 120.277 0 0 0 0.00175421 
43 1 77.7185 120.33 0 0 0 0.00175421 
44 1 107.519 120.219 0 0 0 0.00175421 
45 1 137.879 120.338 0 0 0 0.00175421 
51 1 16.7594 150.298 0 0 0 0.00175421 
52 1 47.5314 150.317 0 0 0 0.00175421 
53 1 77.7205 150.245 0 0 0 0.00175421 
54 1 107.924 150.232 0 0 0 0.00175421 
55 1 137.698 150.254 0 0 0 0.00175421 
101 1 -0.907368 16.8764 0 0 0 0.00175421 
102 1 30.3415 15.3926 0 0 0 0.00175421 
103 1 60.2578 15.2186 0 0 0 0.00175421 
104 1 90.5412 14.9887 0 0 0 0.00175421 
105 1 120.523 15.2271 0 0 0 0.00175421 
106 1 150.354 15.0335 0 0 0 0.00175421 
111 1 -1.03355 47.4505 0 0 0 0.00175421 
112 1 30.2833 46.5448 0 0 0 0.00175421 
113 1 60.5191 46.2554 0 0 0 0.00175421 
114 1 90.55 46.2103 0 0 0 0.00175421 
115 1 120.682 45.9148 0 0 0 0.00175421 
116 1 150.435 45.8467 0 0 0 0.00175421 
121 1 -0.982971 77.4203 0 0 0 0.00175421 
122 1 30.3038 76.3898 0 0 0 0.00175421 
123 1 60.4804 76.5619 0 0 0 0.00175421 
124 1 90.6048 76.1555 0 0 0 0.00175421 
125 1 120.674 75.8139 0 0 0 0.00175421 
126 1 150.616 76.2082 0 0 0 0.00175421 
131 1 -1.11452 107.397 0 0 0 0.00175421 
132 1 30.339 106.378 0 0 0 0.00175421 
133 1 60.5631 106.209 0 0 0 0.00175421 
134 1 90.6211 106.331 0 0 0 0.00175421 
135 1 120.529 106.453 0 0 0 0.00175421 
136 1 150.487 106.27 0 0 0 0.00175421 
141 1 -0.967469 137.247 0 0 0 0.00175421 
142 1 30.2017 136.284 0 0 0 0.00175421 
143 1 60.5153 136.482 0 0 0 0.00175421 
144 1 90.4519 136.337 0 0 0 0.00175421 
145 1 120.464 136.277 0 0 0 0.00175421 
146 1 150.575 136.31 0 0 0 0.00175421 
221 2 0 15 0 0 5 0 
222 2 30 15 0 0 5 0 
223 2 60 15 0 0 5 0 
224 2 90 15 0 0 5 0 
225 2 120 15 0 0 5 0 
226 2 150 15 0 0 5 0 
231 2 0 45 0 0 5 0 
232 2 30 45 0 0 5 0 
233 2 60 45 0 0 5 0 
234 2 90 45 0 0 5 0 
235 2 120 45 0 0 5 0 
236 2 150 45 0 0 5 0 
241 2 0 75 0 0 5 0 
242 2 30 75 0 0 5 0 
243 2 60 75 0 0 5 0 
244 2 90 75 0 0 5 0 
245 2 120 75 0 0 5 0 
246 2 150 75 0 0 5 0 
251 2 0 105 0 0 5 0 
252 2 30 105 0 0 5 0 
253 2 60 105 0 0 5 0 
254 2 90 105 0 0 5 0 
255 2 120 105 0 0 5 0 
256 2 150 105 0 0 5 0 
261 2 0 135 0 0 5 0 
262 2 30 135 0 0 5 0 
263 2 60 135 0 0 5 0 
264 2 90 135 0 0 5 0 
265 2 120 135 0 0 5 0 
266 2 150 135 0 0 5 0 
331 3 15 0 0 10 0 0 
332 3 45 0 0 10 0 0 
333 3 75 0 0 10 0 0 
334 3 105 0 0 10 0 0 
335 3 135 0 0 10 0 0 
341 3 15 30 0 10 0 0 
342 3 45 30 0 10 0 0 
343 3 75 30 0 10 0 0 
344 3 105 30 0 10 0 0 
345 3 135 30 0 10 0 0 
351 3 15 60 0 10 0 0 
352 3 45 60 0 10 0 0 
353 3 75 60 0 10 0 0 
354 3 105 60 0 10 0 0 
355 3 135 60 0 10 0 0 
361 3 15 90 0 10 0 0 
362 3 45 90 0 10 0 0 
363 3 75 90 0 10 0 0 
364 3 105 90 0 10 0 0 
365 3 135 90 0 10 0 0 
371 3 15 120 0 10 0 0 
372 3 45 120 0 10 0 0 
373 3 75 120 0 10 0 0 
374 3 105 120 0 10 0 0 
375 3 135 120 0 10 0 0 