ITEM: TIMESTEP
0
ITEM: NUMBER OF ATOMS
440
ITEM: BOX BOUNDS ss ss pp
-3.6000000000000004e-02 3.0003600000000000e+02
-3.6000000000000004e-02 3.0003600000000000e+02
-2.0000000000000000e-02 2.0000000000000000e-02
ITEM: ATOMS id type x y z mux muy muz 
1 1 20 0 0 0 0 0.00175421 
2 1 50 0 0 0 0 0.00175421 
3 1 80 0 0 0 0 0.00175421 
4 1 110 0 0 0 0 0.00175421 
5 1 140 0 0 0 0 0.00175421 
11 1 20 30 0 0 0 0.00175421 
12 1 50 30 0 0 0 0.00175421 
13 1 80 30 0 0 0 0.00175421 
14 1 110 30 0 0 0 0.00175421 
15 1 140 30 0 0 0 0.00175421 
21 1 20 60 0 0 0 0.00175421 
22 1 50 60 0 0 0 0.00175421 
23 1 80 60 0 0 0 0.00175421 
24 1 110 60 0 0 0 0.00175421 
25 1 140 60 0 0 0 0.00175421 
31 1 20 90 0 0 0 0.00175421 
32 1 50 90 0 0 0 0.00175421 
33 1 80 90 0 0 0 0.00175421 
34 1 110 90 0 0 0 0.00175421 
35 1 140 90 0 0 0 0.00175421 
41 1 20 120 0 0 0 0.00175421 
42 1 50 120 0 0 0 0.00175421 
43 1 80 120 0 0 0 0.00175421 
44 1 110 120 0 0 0 0.00175421 
45 1 140 120 0 0 0 0.00175421 
51 1 20 150 0 0 0 0.00175421 
52 1 50 150 0 0 0 0.00175421 
53 1 80 150 0 0 0 0.00175421 
54 1 110 150 0 0 0 0.00175421 
55 1 140 150 0 0 0 0.00175421 
101 1 0 17.5 0 0 0 0.00175421 
102 1 30 17.5 0 0 0 0.00175421 
103 1 60 17.5 0 0 0 0.00175421 
104 1 90 17.5 0 0 0 0.00175421 
105 1 120 17.5 0 0 0 0.00175421 
106 1 150 17.5 0 0 0 0.00175421 
111 1 0 47.5 0 0 0 0.00175421 
112 1 30 47.5 0 0 0 0.00175421 
113 1 60 47.5 0 0 0 0.00175421 
114 1 90 47.5 0 0 0 0.00175421 
115 1 120 47.5 0 0 0 0.00175421 
116 1 150 47.5 0 0 0 0.00175421 
121 1 0 77.5 0 0 0 0.00175421 
122 1 30 77.5 0 0 0 0.00175421 
123 1 60 77.5 0 0 0 0.00175421 
124 1 90 77.5 0 0 0 0.00175421 
125 1 120 77.5 0 0 0 0.00175421 
126 1 150 77.5 0 0 0 0.00175421 
131 1 0 107.5 0 0 0 0.00175421 
132 1 30 107.5 0 0 0 0.00175421 
133 1 60 107.5 0 0 0 0.00175421 
134 1 90 107.5 0 0 0 0.00175421 
135 1 120 107.5 0 0 0 0.00175421 
136 1 150 107.5 0 0 0 0.00175421 
141 1 0 137.5 0 0 0 0.00175421 
142 1 30 137.5 0 0 0 0.00175421 
143 1 60 137.5 0 0 0 0.00175421 
144 1 90 137.5 0 0 0 0.00175421 
145 1 120 137.5 0 0 0 0.00175421 
146 1 150 137.5 0 0 0 0.00175421 
221 2 0 15 0 0 5 0 
222 2 30 15 0 0 5 0 
223 2 60 15 0 0 5 0 
224 2 90 15 0 0 5 0 
225 2 120 15 0 0 5 0 
226 2 150 15 0 0 5 0 
231 2 0 45 0 0 5 0 
232 2 30 45 0 0 5 0 
233 2 60 45 0 0 5 0 
234 2 90 45 0 0 5 0 
235 2 120 45 0 0 5 0 
236 2 150 45 0 0 5 0 
241 2 0 75 0 0 5 0 
242 2 30 75 0 0 5 0 
243 2 60 75 0 0 5 0 
244 2 90 75 0 0 5 0 
245 2 120 75 0 0 5 0 
246 2 150 75 0 0 5 0 
251 2 0 105 0 0 5 0 
252 2 30 105 0 0 5 0 
253 2 60 105 0 0 5 0 
254 2 90 105 0 0 5 0 
255 2 120 105 0 0 5 0 
256 2 150 105 0 0 5 0 
261 2 0 135 0 0 5 0 
262 2 30 135 0 0 5 0 
263 2 60 135 0 0 5 0 
264 2 90 135 0 0 5 0 
265 2 120 135 0 0 5 0 
266 2 150 135 0 0 5 0 
331 3 15 0 0 10 0 0 
332 3 45 0 0 10 0 0 
333 3 75 0 0 10 0 0 
334 3 105 0 0 10 0 0 
335 3 135 0 0 10 0 0 
341 3 15 30 0 10 0 0 
342 3 45 30 0 10 0 0 
343 3 75 30 0 10 0 0 
344 3 105 30 0 10 0 0 
345 3 135 30 0 10 0 0 
351 3 15 60 0 10 0 0 
352 3 45 60 0 10 0 0 
353 3 75 60 0 10 0 0 
354 3 105 60 0 10 0 0 
355 3 135 60 0 10 0 0 
361 3 15 90 0 10 0 0 
362 3 45 90 0 10 0 0 
363 3 75 90 0 10 0 0 
364 3 105 90 0 10 0 0 
365 3 135 90 0 10 0 0 
371 3 15 120 0 10 0 0 
372 3 45 120 0 10 0 0 
373 3 75 120 0 10 0 0 
374 3 105 120 0 10 0 0 
375 3 135 120 0 10 0 0 
381 3 15 150 0 10 0 0 
382 3 45 150 0 10 0 0 
383 3 75 150 0 10 0 0 
384 3 105 150 0 10 0 0 
385 3 135 150 0 10 0 0 
6 1 170 0 0 0 0 0.00175421 
7 1 200 0 0 0 0 0.00175421 
8 1 230 0 0 0 0 0.00175421 
9 1 260 0 0 0 0 0.00175421 
10 1 290 0 0 0 0 0.00175421 
16 1 170 30 0 0 0 0.00175421 
17 1 200 30 0 0 0 0.00175421 
18 1 230 30 0 0 0 0.00175421 
19 1 260 30 0 0 0 0.00175421 
20 1 290 30 0 0 0 0.00175421 
26 1 170 60 0 0 0 0.00175421 
27 1 200 60 0 0 0 0.00175421 
28 1 230 60 0 0 0 0.00175421 
29 1 260 60 0 0 0 0.00175421 
30 1 290 60 0 0 0 0.00175421 
36 1 170 90 0 0 0 0.00175421 
37 1 200 90 0 0 0 0.00175421 
38 1 230 90 0 0 0 0.00175421 
39 1 260 90 0 0 0 0.00175421 
40 1 290 90 0 0 0 0.00175421 
46 1 170 120 0 0 0 0.00175421 
47 1 200 120 0 0 0 0.00175421 
48 1 230 120 0 0 0 0.00175421 
49 1 260 120 0 0 0 0.00175421 
50 1 290 120 0 0 0 0.00175421 
56 1 170 150 0 0 0 0.00175421 
57 1 200 150 0 0 0 0.00175421 
58 1 230 150 0 0 0 0.00175421 
59 1 260 150 0 0 0 0.00175421 
60 1 290 150 0 0 0 0.00175421 
107 1 180 17.5 0 0 0 0.00175421 
108 1 210 17.5 0 0 0 0.00175421 
109 1 240 17.5 0 0 0 0.00175421 
110 1 270 17.5 0 0 0 0.00175421 
117 1 180 47.5 0 0 0 0.00175421 
118 1 210 47.5 0 0 0 0.00175421 
119 1 240 47.5 0 0 0 0.00175421 
120 1 270 47.5 0 0 0 0.00175421 
127 1 180 77.5 0 0 0 0.00175421 
128 1 210 77.5 0 0 0 0.00175421 
129 1 240 77.5 0 0 0 0.00175421 
130 1 270 77.5 0 0 0 0.00175421 
137 1 180 107.5 0 0 0 0.00175421 
138 1 210 107.5 0 0 0 0.00175421 
139 1 240 107.5 0 0 0 0.00175421 
140 1 270 107.5 0 0 0 0.00175421 
147 1 180 137.5 0 0 0 0.00175421 
148 1 210 137.5 0 0 0 0.00175421 
149 1 240 137.5 0 0 0 0.00175421 
150 1 270 137.5 0 0 0 0.00175421 
201 1 300 17.5 0 0 0 0.00175421 
202 1 300 47.5 0 0 0 0.00175421 
203 1 300 77.5 0 0 0 0.00175421 
204 1 300 107.5 0 0 0 0.00175421 
205 1 300 137.5 0 0 0 0.00175421 
227 2 180 15 0 0 5 0 
228 2 210 15 0 0 5 0 
229 2 240 15 0 0 5 0 
230 2 270 15 0 0 5 0 
237 2 180 45 0 0 5 0 
238 2 210 45 0 0 5 0 
239 2 240 45 0 0 5 0 
240 2 270 45 0 0 5 0 
247 2 180 75 0 0 5 0 
248 2 210 75 0 0 5 0 
249 2 240 75 0 0 5 0 
250 2 270 75 0 0 5 0 
257 2 180 105 0 0 5 0 
258 2 210 105 0 0 5 0 
259 2 240 105 0 0 5 0 
260 2 270 105 0 0 5 0 
267 2 180 135 0 0 5 0 
268 2 210 135 0 0 5 0 
269 2 240 135 0 0 5 0 
270 2 270 135 0 0 5 0 
321 2 300 15 0 0 5 0 
322 2 300 45 0 0 5 0 
323 2 300 75 0 0 5 0 
324 2 300 105 0 0 5 0 
325 2 300 135 0 0 5 0 
336 3 165 0 0 10 0 0 
337 3 195 0 0 10 0 0 
338 3 225 0 0 10 0 0 
339 3 255 0 0 10 0 0 
340 3 285 0 0 10 0 0 
346 3 165 30 0 10 0 0 
347 3 195 30 0 10 0 0 
348 3 225 30 0 10 0 0 
349 3 255 30 0 10 0 0 
350 3 285 30 0 10 0 0 
356 3 165 60 0 10 0 0 
357 3 195 60 0 10 0 0 
358 3 225 60 0 10 0 0 
359 3 255 60 0 10 0 0 
360 3 285 60 0 10 0 0 
366 3 165 90 0 10 0 0 
367 3 195 90 0 10 0 0 
368 3 225 90 0 10 0 0 
369 3 255 90 0 10 0 0 
370 3 285 90 0 10 0 0 
376 3 165 120 0 10 0 0 
377 3 195 120 0 10 0 0 
378 3 225 120 0 10 0 0 
379 3 255 120 0 10 0 0 
380 3 285 120 0 10 0 0 
386 3 165 150 0 10 0 0 
387 3 195 150 0 10 0 0 
388 3 225 150 0 10 0 0 
389 3 255 150 0 10 0 0 
390 3 285 150 0 10 0 0 
61 1 20 180 0 0 0 0.00175421 
62 1 50 180 0 0 0 0.00175421 
63 1 80 180 0 0 0 0.00175421 
64 1 110 180 0 0 0 0.00175421 
65 1 140 180 0 0 0 0.00175421 
71 1 20 210 0 0 0 0.00175421 
72 1 50 210 0 0 0 0.00175421 
73 1 80 210 0 0 0 0.00175421 
74 1 110 210 0 0 0 0.00175421 
75 1 140 210 0 0 0 0.00175421 
81 1 20 240 0 0 0 0.00175421 
82 1 50 240 0 0 0 0.00175421 
83 1 80 240 0 0 0 0.00175421 
84 1 110 240 0 0 0 0.00175421 
85 1 140 240 0 0 0 0.00175421 
91 1 20 270 0 0 0 0.00175421 
92 1 50 270 0 0 0 0.00175421 
93 1 80 270 0 0 0 0.00175421 
94 1 110 270 0 0 0 0.00175421 
95 1 140 270 0 0 0 0.00175421 
151 1 0 167.5 0 0 0 0.00175421 
152 1 30 167.5 0 0 0 0.00175421 
153 1 60 167.5 0 0 0 0.00175421 
154 1 90 167.5 0 0 0 0.00175421 
155 1 120 167.5 0 0 0 0.00175421 
156 1 150 167.5 0 0 0 0.00175421 
161 1 0 197.5 0 0 0 0.00175421 
162 1 30 197.5 0 0 0 0.00175421 
163 1 60 197.5 0 0 0 0.00175421 
164 1 90 197.5 0 0 0 0.00175421 
165 1 120 197.5 0 0 0 0.00175421 
166 1 150 197.5 0 0 0 0.00175421 
171 1 0 227.5 0 0 0 0.00175421 
172 1 30 227.5 0 0 0 0.00175421 
173 1 60 227.5 0 0 0 0.00175421 
174 1 90 227.5 0 0 0 0.00175421 
175 1 120 227.5 0 0 0 0.00175421 
176 1 150 227.5 0 0 0 0.00175421 
181 1 0 257.5 0 0 0 0.00175421 
182 1 30 257.5 0 0 0 0.00175421 
183 1 60 257.5 0 0 0 0.00175421 
184 1 90 257.5 0 0 0 0.00175421 
185 1 120 257.5 0 0 0 0.00175421 
186 1 150 257.5 0 0 0 0.00175421 
191 1 0 287.5 0 0 0 0.00175421 
192 1 30 287.5 0 0 0 0.00175421 
193 1 60 287.5 0 0 0 0.00175421 
194 1 90 287.5 0 0 0 0.00175421 
195 1 120 287.5 0 0 0 0.00175421 
196 1 150 287.5 0 0 0 0.00175421 
211 1 20 300 0 0 0 0.00175421 
212 1 50 300 0 0 0 0.00175421 
213 1 80 300 0 0 0 0.00175421 
214 1 110 300 0 0 0 0.00175421 
215 1 140 300 0 0 0 0.00175421 
271 2 0 165 0 0 5 0 
272 2 30 165 0 0 5 0 
273 2 60 165 0 0 5 0 
274 2 90 165 0 0 5 0 
275 2 120 165 0 0 5 0 
276 2 150 165 0 0 5 0 
281 2 0 195 0 0 5 0 
282 2 30 195 0 0 5 0 
283 2 60 195 0 0 5 0 
284 2 90 195 0 0 5 0 
285 2 120 195 0 0 5 0 
286 2 150 195 0 0 5 0 
291 2 0 225 0 0 5 0 
292 2 30 225 0 0 5 0 
293 2 60 225 0 0 5 0 
294 2 90 225 0 0 5 0 
295 2 120 225 0 0 5 0 
296 2 150 225 0 0 5 0 
301 2 0 255 0 0 5 0 
302 2 30 255 0 0 5 0 
303 2 60 255 0 0 5 0 
304 2 90 255 0 0 5 0 
305 2 120 255 0 0 5 0 
306 2 150 255 0 0 5 0 
311 2 0 285 0 0 5 0 
312 2 30 285 0 0 5 0 
313 2 60 285 0 0 5 0 
314 2 90 285 0 0 5 0 
315 2 120 285 0 0 5 0 
316 2 150 285 0 0 5 0 
391 3 15 180 0 10 0 0 
392 3 45 180 0 10 0 0 
393 3 75 180 0 10 0 0 
394 3 105 180 0 10 0 0 
395 3 135 180 0 10 0 0 
401 3 15 210 0 10 0 0 
402 3 45 210 0 10 0 0 
403 3 75 210 0 10 0 0 
404 3 105 210 0 10 0 0 
405 3 135 210 0 10 0 0 
411 3 15 240 0 10 0 0 
412 3 45 240 0 10 0 0 
413 3 75 240 0 10 0 0 
414 3 105 240 0 10 0 0 
415 3 135 240 0 10 0 0 
421 3 15 270 0 10 0 0 
422 3 45 270 0 10 0 0 
423 3 75 270 0 10 0 0 
424 3 105 270 0 10 0 0 
425 3 135 270 0 10 0 0 
431 3 15 300 0 10 0 0 
432 3 45 300 0 10 0 0 
433 3 75 300 0 10 0 0 
434 3 105 300 0 10 0 0 
435 3 135 300 0 10 0 0 
66 1 170 180 0 0 0 0.00175421 
67 1 200 180 0 0 0 0.00175421 
68 1 230 180 0 0 0 0.00175421 
69 1 260 180 0 0 0 0.00175421 
70 1 290 180 0 0 0 0.00175421 
76 1 170 210 0 0 0 0.00175421 
77 1 200 210 0 0 0 0.00175421 
78 1 230 210 0 0 0 0.00175421 
79 1 260 210 0 0 0 0.00175421 
80 1 290 210 0 0 0 0.00175421 
86 1 170 240 0 0 0 0.00175421 
87 1 200 240 0 0 0 0.00175421 
88 1 230 240 0 0 0 0.00175421 
89 1 260 240 0 0 0 0.00175421 
90 1 290 240 0 0 0 0.00175421 
96 1 170 270 0 0 0 0.00175421 
97 1 200 270 0 0 0 0.00175421 
98 1 230 270 0 0 0 0.00175421 
99 1 260 270 0 0 0 0.00175421 
100 1 290 270 0 0 0 0.00175421 
157 1 180 167.5 0 0 0 0.00175421 
158 1 210 167.5 0 0 0 0.00175421 
159 1 240 167.5 0 0 0 0.00175421 
160 1 270 167.5 0 0 0 0.00175421 
167 1 180 197.5 0 0 0 0.00175421 
168 1 210 197.5 0 0 0 0.00175421 
169 1 240 197.5 0 0 0 0.00175421 
170 1 270 197.5 0 0 0 0.00175421 
177 1 180 227.5 0 0 0 0.00175421 
178 1 210 227.5 0 0 0 0.00175421 
179 1 240 227.5 0 0 0 0.00175421 
180 1 270 227.5 0 0 0 0.00175421 
187 1 180 257.5 0 0 0 0.00175421 
188 1 210 257.5 0 0 0 0.00175421 
189 1 240 257.5 0 0 0 0.00175421 
190 1 270 257.5 0 0 0 0.00175421 
197 1 180 287.5 0 0 0 0.00175421 
198 1 210 287.5 0 0 0 0.00175421 
199 1 240 287.5 0 0 0 0.00175421 
200 1 270 287.5 0 0 0 0.00175421 
206 1 300 167.5 0 0 0 0.00175421 
207 1 300 197.5 0 0 0 0.00175421 
208 1 300 227.5 0 0 0 0.00175421 
209 1 300 257.5 0 0 0 0.00175421 
210 1 300 287.5 0 0 0 0.00175421 
216 1 170 300 0 0 0 0.00175421 
217 1 200 300 0 0 0 0.00175421 
218 1 230 300 0 0 0 0.00175421 
219 1 260 300 0 0 0 0.00175421 
220 1 290 300 0 0 0 0.00175421 
277 2 180 165 0 0 5 0 
278 2 210 165 0 0 5 0 
279 2 240 165 0 0 5 0 
280 2 270 165 0 0 5 0 
287 2 180 195 0 0 5 0 
288 2 210 195 0 0 5 0 
289 2 240 195 0 0 5 0 
290 2 270 195 0 0 5 0 
297 2 180 225 0 0 5 0 
298 2 210 225 0 0 5 0 
299 2 240 225 0 0 5 0 
300 2 270 225 0 0 5 0 
307 2 180 255 0 0 5 0 
308 2 210 255 0 0 5 0 
309 2 240 255 0 0 5 0 
310 2 270 255 0 0 5 0 
317 2 180 285 0 0 5 0 
318 2 210 285 0 0 5 0 
319 2 240 285 0 0 5 0 
320 2 270 285 0 0 5 0 
326 2 300 165 0 0 5 0 
327 2 300 195 0 0 5 0 
328 2 300 225 0 0 5 0 
329 2 300 255 0 0 5 0 
330 2 300 285 0 0 5 0 
396 3 165 180 0 10 0 0 
397 3 195 180 0 10 0 0 
398 3 225 180 0 10 0 0 
399 3 255 180 0 10 0 0 
400 3 285 180 0 10 0 0 
406 3 165 210 0 10 0 0 
407 3 195 210 0 10 0 0 
408 3 225 210 0 10 0 0 
409 3 255 210 0 10 0 0 
410 3 285 210 0 10 0 0 
416 3 165 240 0 10 0 0 
417 3 195 240 0 10 0 0 
418 3 225 240 0 10 0 0 
419 3 255 240 0 10 0 0 
420 3 285 240 0 10 0 0 
426 3 165 270 0 10 0 0 
427 3 195 270 0 10 0 0 
428 3 225 270 0 10 0 0 
429 3 255 270 0 10 0 0 
430 3 285 270 0 10 0 0 
436 3 165 300 0 10 0 0 
437 3 195 300 0 10 0 0 
438 3 225 300 0 10 0 0 
439 3 255 300 0 10 0 0 
440 3 285 300 0 10 0 0 
ITEM: TIMESTEP
10
ITEM: NUMBER OF ATOMS
440
ITEM: BOX BOUNDS ss ss pp
-9.9307298155439028e-01 3.0165139971954522e+02
-1.2983909755677667e+00 3.0156241630524880e+02
-2.0000000000000000e-02 2.0000000000000000e-02
ITEM: ATOMS id type x y z mux muy muz 
1 1 18.9389 -0.832862 0 0 0 0.00175421 
2 1 49.8684 -1.05438 0 0 0 0.00175421 
3 1 79.636 -1.2064 0 0 0 0.00175421 
4 1 109.914 -1.13073 0 0 0 0.00175421 
5 1 139.657 -1.09751 0 0 0 0.00175421 
11 1 18.1768 30.3006 0 0 0 0.00175421 
12 1 48.779 30.3657 0 0 0 0.00175421 
13 1 78.751 30.2344 0 0 0 0.00175421 
14 1 108.476 30.3031 0 0 0 0.00175421 
15 1 138.787 30.4024 0 0 0 0.00175421 
21 1 18.3047 60.3711 0 0 0 0.00175421 
22 1 48.8174 60.4052 0 0 0 0.00175421 
23 1 78.4117 60.3111 0 0 0 0.00175421 
24 1 108.651 60.3616 0 0 0 0.00175421 
25 1 138.682 60.2968 0 0 0 0.00175421 
31 1 18.3109 90.4902 0 0 0 0.00175421 
32 1 48.5998 90.4093 0 0 0 0.00175421 
33 1 78.6596 90.3638 0 0 0 0.00175421 
34 1 108.508 90.3379 0 0 0 0.00175421 
35 1 138.619 90.3323 0 0 0 0.00175421 
41 1 17.7818 120.318 0 0 0 0.00175421 
42 1 48.4163 120.349 0 0 0 0.00175421 
43 1 78.5398 120.554 0 0 0 0.00175421 
44 1 108.948 120.298 0 0 0 0.00175421 
45 1 138.984 120.414 0 0 0 0.00175421 
51 1 18.2787 150.357 0 0 0 0.00175421 
52 1 48.4169 150.326 0 0 0 0.00175421 
53 1 78.5059 150.468 0 0 0 0.00175421 
54 1 108.668 150.423 0 0 0 0.00175421 
55 1 138.807 150.523 0 0 0 0.00175421 
101 1 -0.501128 17.234 0 0 0 0.00175421 
102 1 30.5059 16.3441 0 0 0 0.00175421 
103 1 60.557 16.2976 0 0 0 0.00175421 
104 1 90.5475 16.4092 0 0 0 0.00175421 
105 1 120.492 15.7894 0 0 0 0.00175421 
106 1 150.457 16.2738 0 0 0 0.00175421 
111 1 -0.722761 47.3203 0 0 0 0.00175421 
112 1 30.5791 46.5175 0 0 0 0.00175421 
113 1 60.682 46.6361 0 0 0 0.00175421 
114 1 90.4143 46.7327 0 0 0 0.00175421 
115 1 120.702 46.5552 0 0 0 0.00175421 
116 1 150.715 46.5979 0 0 0 0.00175421 
121 1 -0.820189 77.3562 0 0 0 0.00175421 
122 1 30.5362 76.6046 0 0 0 0.00175421 
123 1 60.6042 76.593 0 0 0 0.00175421 
124 1 90.6447 76.4864 0 0 0 0.00175421 
125 1 120.739 76.6385 0 0 0 0.00175421 
126 1 150.685 76.4791 0 0 0 0.00175421 
131 1 -0.957073 107.485 0 0 0 0.00175421 
132 1 30.5355 106.529 0 0 0 0.00175421 
133 1 60.5174 106.587 0 0 0 0.00175421 
134 1 90.7125 106.98 0 0 0 0.00175421 
135 1 120.584 106.426 0 0 0 0.00175421 
136 1 150.557 106.562 0 0 0 0.00175421 
141 1 -0.828803 137.324 0 0 0 0.00175421 
142 1 30.5055 136.48 0 0 0 0.00175421 
143 1 60.5769 136.596 0 0 0 0.00175421 
144 1 90.6062 136.627 0 0 0 0.00175421 
145 1 120.583 136.823 0 0 0 0.00175421 
146 1 150.699 136.741 0 0 0 0.00175421 
221 2 0 15 0 0 5 0 
222 2 30 15 0 0 5 0 
223 2 60 15 0 0 5 0 
224 2 90 15 0 0 5 0 
225 2 120 15 0 0 5 0 
226 2 150 15 0 0 5 0 
231 2 0 45 0 0 5 0 
232 2 30 45 0 0 5 0 
233 2 60 45 0 0 5 0 
234 2 90 45 0 0 5 0 
235 2 120 45 0 0 5 0 
236 2 150 45 0 0 5 0 
241 2 0 75 0 0 5 0 
242 2 30 75 0 0 5 0 
243 2 60 75 0 0 5 0 
244 2 90 75 0 0 5 0 
245 2 120 75 0 0 5 0 
246 2 150 75 0 0 5 0 
251 2 0 105 0 0 5 0 
252 2 30 105 0 0 5 0 
253 2 60 105 0 0 5 0 
254 2 90 105 0 0 5 0 
255 2 120 105 0 0 5 0 
256 2 150 105 0 0 5 0 
261 2 0 135 0 0 5 0 
262 2 30 135 0 0 5 0 
263 2 60 135 0 0 5 0 
264 2 90 135 0 0 5 0 
265 2 120 135 0 0 5 0 
266 2 150 135 0 0 5 0 
331 3 15 0 0 10 0 0 
332 3 45 0 0 10 0 0 
333 3 75 0 0 10 0 0 
334 3 105 0 0 10 0 0 
335 3 135 0 0 10 0 0 
341 3 15 30 0 10 0 0 
342 3 45 30 0 10 0 0 
343 3 75 30 0 10 0 0 
344 3 105 30 0 10 0 0 
345 3 135 30 0 10 0 0 
351 3 15 60 0 10 0 0 
352 3 45 60 0 10 0 0 
353 3 75 60 0 10 0 0 
354 3 105 60 0 10 0 0 
355 3 135 60 0 10 0 0 
361 3 15 90 0 10 0 0 
362 3 45 90 0 10 0 0 
363 3 75 90 0 10 0 0 
364 3 105 90 0 10 0 0 
365 3 135 90 0 10 0 0 
371 3 15 120 0 10 0 0 
372 3 45 120 0 10 0 0 
373 3 75 120 0 10 0 0 
374 3 105 120 0 10 0 0 
375 3 135 120 0 10 0 0 
381 3 15 150 0 10 0 0 
382 3 45 150 0 10 0 0 
383 3 75 150 0 10 0 0 
384 3 105 150 0 10 0 0 
385 3 135 150 0 10 0 0 
6 1 169.344 -0.940905 0 0 0 0.00175421 
7 1 199.804 -0.872909 0 0 0 0.00175421 
8 1 229.673 -0.843462 0 0 0 0.00175421 
9 1 259.703 -1.26239 0 0 0 0.00175421 
10 1 289.955 -0.833453 0 0 0 0.00175421 
16 1 168.695 30.2564 0 0 0 0.00175421 
17 1 198.372 30.2815 0 0 0 0.00175421 
18 1 228.466 30.2015 0 0 0 0.00175421 
19 1 258.697 30.1431 0 0 0 0.00175421 
20 1 289.412 30.2094 0 0 0 0.00175421 
26 1 168.544 60.3618 0 0 0 0.00175421 
27 1 198.573 60.4086 0 0 0 0.00175421 
28 1 228.803 60.3284 0 0 0 0.00175421 
29 1 258.796 60.3997 0 0 0 0.00175421 
30 1 289.272 60.3116 0 0 0 0.00175421 
36 1 168.609 90.3775 0 0 0 0.00175421 
37 1 198.665 90.2862 0 0 0 0.00175421 
38 1 228.639 90.4475 0 0 0 0.00175421 
39 1 258.814 90.351 0 0 0 0.00175421 
40 1 289.586 90.3442 0 0 0 0.00175421 
46 1 168.869 120.44 0 0 0 0.00175421 
47 1 198.759 120.416 0 0 0 0.00175421 
48 1 228.588 120.407 0 0 0 0.00175421 
49 1 258.761 120.445 0 0 0 0.00175421 
50 1 289.442 120.296 0 0 0 0.00175421 
56 1 168.694 150.297 0 0 0 0.00175421 
57 1 198.485 150.534 0 0 0 0.00175421 
58 1 229.011 150.353 0 0 0 0.00175421 
59 1 258.628 150.366 0 0 0 0.00175421 
60 1 289.391 150.507 0 0 0 0.00175421 
107 1 180.517 15.8911 0 0 0 0.00175421 
108 1 210.476 16.2169 0 0 0 0.00175421 
109 1 240.493 16.2409 0 0 0 0.00175421 
110 1 270.542 16.2129 0 0 0 0.00175421 
117 1 180.727 46.6309 0 0 0 0.00175421 
118 1 210.706 46.9949 0 0 0 0.00175421 
119 1 240.565 46.4041 0 0 0 0.00175421 
120 1 270.656 46.5894 0 0 0 0.00175421 
127 1 180.692 76.7646 0 0 0 0.00175421 
128 1 210.566 76.7615 0 0 0 0.00175421 
129 1 240.605 76.8761 0 0 0 0.00175421 
130 1 270.677 76.4888 0 0 0 0.00175421 
137 1 180.712 106.554 0 0 0 0.00175421 
138 1 210.606 106.844 0 0 0 0.00175421 
139 1 240.689 106.579 0 0 0 0.00175421 
140 1 270.779 106.703 0 0 0 0.00175421 
147 1 180.677 136.912 0 0 0 0.00175421 
148 1 210.583 136.817 0 0 0 0.00175421 
149 1 240.595 136.476 0 0 0 0.00175421 
150 1 270.855 136.933 0 0 0 0.00175421 
201 1 301.403 16.4445 0 0 0 0.00175421 
202 1 301.436 46.9393 0 0 0 0.00175421 
203 1 301.471 76.6023 0 0 0 0.00175421 
204 1 301.445 106.527 0 0 0 0.00175421 
205 1 301.615 136.989 0 0 0 0.00175421 
227 2 180 15 0 0 5 0 
228 2 210 15 0 0 5 0 
229 2 240 15 0 0 5 0 
230 2 270 15 0 0 5 0 
237 2 180 45 0 0 5 0 
238 2 210 45 0 0 5 0 
239 2 240 45 0 0 5 0 
240 2 270 45 0 0 5 0 
247 2 180 75 0 0 5 0 
248 2 210 75 0 0 5 0 
249 2 240 75 0 0 5 0 
250 2 270 75 0 0 5 0 
257 2 180 105 0 0 5 0 
258 2 210 105 0 0 5 0 
259 2 240 105 0 0 5 0 
260 2 270 105 0 0 5 0 
267 2 180 135 0 0 5 0 
268 2 210 135 0 0 5 0 
269 2 240 135 0 0 5 0 
270 2 270 135 0 0 5 0 
321 2 300 15 0 0 5 0 
322 2 300 45 0 0 5 0 
323 2 300 75 0 0 5 0 
324 2 300 105 0 0 5 0 
325 2 300 135 0 0 5 0 
336 3 165 0 0 10 0 0 
337 3 195 0 0 10 0 0 
338 3 225 0 0 10 0 0 
339 3 255 0 0 10 0 0 
340 3 285 0 0 10 0 0 
346 3 165 30 0 10 0 0 
347 3 195 30 0 10 0 0 
348 3 225 30 0 10 0 0 
349 3 255 30 0 10 0 0 
350 3 285 30 0 10 0 0 
356 3 165 60 0 10 0 0 
357 3 195 60 0 10 0 0 
358 3 225 60 0 10 0 0 
359 3 255 60 0 10 0 0 
360 3 285 60 0 10 0 0 
366 3 165 90 0 10 0 0 
367 3 195 90 0 10 0 0 
368 3 225 90 0 10 0 0 
369 3 255 90 0 10 0 0 
370 3 285 90 0 10 0 0 
376 3 165 120 0 10 0 0 
377 3 195 120 0 10 0 0 
378 3 225 120 0 10 0 0 
379 3 255 120 0 10 0 0 
380 3 285 120 0 10 0 0 
386 3 165 150 0 10 0 0 
387 3 195 150 0 10 0 0 
388 3 225 150 0 10 0 0 
389 3 255 150 0 10 0 0 
390 3 285 150 0 10 0 0 
61 1 18.0705 180.419 0 0 0 0.00175421 
62 1 48.8599 180.495 0 0 0 0.00175421 
63 1 78.7734 180.338 0 0 0 0.00175421 
64 1 108.735 180.464 0 0 0 0.00175421 
65 1 138.772 180.338 0 0 0 0.00175421 
71 1 18.1637 210.338 0 0 0 0.00175421 
72 1 48.4103 210.489 0 0 0 0.00175421 
73 1 78.7054 210.396 0 0 0 0.00175421 
74 1 108.647 210.466 0 0 0 0.00175421 
75 1 138.662 210.279 0 0 0 0.00175421 
81 1 17.9822 240.296 0 0 0 0.00175421 
82 1 48.7715 240.427 0 0 0 0.00175421 
83 1 78.5886 240.531 0 0 0 0.00175421 
84 1 108.555 240.403 0 0 0 0.00175421 
85 1 138.677 240.43 0 0 0 0.00175421 
91 1 18.2181 270.572 0 0 0 0.00175421 
92 1 48.4582 270.573 0 0 0 0.00175421 
93 1 78.4324 270.508 0 0 0 0.00175421 
94 1 108.74 270.595 0 0 0 0.00175421 
95 1 138.707 270.608 0 0 0 0.00175421 
151 1 -0.859579 167.4 0 0 0 0.00175421 
152 1 30.4171 166.64 0 0 0 0.00175421 
153 1 60.4709 166.815 0 0 0 0.00175421 
154 1 90.6631 166.624 0 0 0 0.00175421 
155 1 120.556 166.549 0 0 0 0.00175421 
156 1 150.774 166.634 0 0 0 0.00175421 
161 1 -0.812091 197.309 0 0 0 0.00175421 
162 1 30.4699 196.616 0 0 0 0.00175421 
163 1 60.6911 196.915 0 0 0 0.00175421 
164 1 90.5459 196.565 0 0 0 0.00175421 
165 1 120.794 196.83 0 0 0 0.00175421 
166 1 150.799 196.904 0 0 0 0.00175421 
171 1 -0.803728 227.445 0 0 0 0.00175421 
172 1 30.5861 226.675 0 0 0 0.00175421 
173 1 60.6421 226.676 0 0 0 0.00175421 
174 1 90.5379 226.886 0 0 0 0.00175421 
175 1 120.784 226.565 0 0 0 0.00175421 
176 1 150.725 226.829 0 0 0 0.00175421 
181 1 -0.887028 257.394 0 0 0 0.00175421 
182 1 30.4158 256.71 0 0 0 0.00175421 
183 1 60.6342 256.866 0 0 0 0.00175421 
184 1 90.8385 256.995 0 0 0 0.00175421 
185 1 120.7 256.785 0 0 0 0.00175421 
186 1 150.65 256.703 0 0 0 0.00175421 
191 1 -0.695847 287.546 0 0 0 0.00175421 
192 1 30.3694 287.353 0 0 0 0.00175421 
193 1 60.5769 287.481 0 0 0 0.00175421 
194 1 90.5856 287.121 0 0 0 0.00175421 
195 1 120.575 287.476 0 0 0 0.00175421 
196 1 150.672 287.332 0 0 0 0.00175421 
211 1 18.4384 301.379 0 0 0 0.00175421 
212 1 48.7607 301.399 0 0 0 0.00175421 
213 1 79.1854 301.464 0 0 0 0.00175421 
214 1 109.001 301.406 0 0 0 0.00175421 
215 1 139.068 301.435 0 0 0 0.00175421 
271 2 0 165 0 0 5 0 
272 2 30 165 0 0 5 0 
273 2 60 165 0 0 5 0 
274 2 90 165 0 0 5 0 
275 2 120 165 0 0 5 0 
276 2 150 165 0 0 5 0 
281 2 0 195 0 0 5 0 
282 2 30 195 0 0 5 0 
283 2 60 195 0 0 5 0 
284 2 90 195 0 0 5 0 
285 2 120 195 0 0 5 0 
286 2 150 195 0 0 5 0 
291 2 0 225 0 0 5 0 
292 2 30 225 0 0 5 0 
293 2 60 225 0 0 5 0 
294 2 90 225 0 0 5 0 
295 2 120 225 0 0 5 0 
296 2 150 225 0 0 5 0 
301 2 0 255 0 0 5 0 
302 2 30 255 0 0 5 0 
303 2 60 255 0 0 5 0 
304 2 90 255 0 0 5 0 
305 2 120 255 0 0 5 0 
306 2 150 255 0 0 5 0 
311 2 0 285 0 0 5 0 
312 2 30 285 0 0 5 0 
313 2 60 285 0 0 5 0 
314 2 90 285 0 0 5 0 
315 2 120 285 0 0 5 0 
316 2 150 285 0 0 5 0 
391 3 15 180 0 10 0 0 
392 3 45 180 0 10 0 0 
393 3 75 180 0 10 0 0 
394 3 105 180 0 10 0 0 
395 3 135 180 0 10 0 0 
401 3 15 210 0 10 0 0 
402 3 45 210 0 10 0 0 
403 3 75 210 0 10 0 0 
404 3 105 210 0 10 0 0 
405 3 135 210 0 10 0 0 
411 3 15 240 0 10 0 0 
412 3 45 240 0 10 0 0 
413 3 75 240 0 10 0 0 
414 3 105 240 0 10 0 0 
415 3 135 240 0 10 0 0 
421 3 15 270 0 10 0 0 
422 3 45 270 0 10 0 0 
423 3 75 270 0 10 0 0 
424 3 105 270 0 10 0 0 
425 3 135 270 0 10 0 0 
431 3 15 300 0 10 0 0 
432 3 45 300 0 10 0 0 
433 3 75 300 0 10 0 0 
434 3 105 300 0 10 0 0 
435 3 135 300 0 10 0 0 
66 1 168.81 180.353 0 0 0 0.00175421 
67 1 198.757 180.403 0 0 0 0.00175421 
68 1 228.634 180.454 0 0 0 0.00175421 
69 1 258.781 180.448 0 0 0 0.00175421 
70 1 289.282 180.255 0 0 0 0.00175421 
76 1 168.722 210.407 0 0 0 0.00175421 
77 1 198.762 210.381 0 0 0 0.00175421 
78 1 228.615 210.292 0 0 0 0.00175421 
79 1 259.048 210.515 0 0 0 0.00175421 
80 1 289.476 210.39 0 0 0 0.00175421 
86 1 168.642 240.414 0 0 0 0.00175421 
87 1 198.578 240.514 0 0 0 0.00175421 
88 1 228.754 240.546 0 0 0 0.00175421 
89 1 258.922 240.429 0 0 0 0.00175421 
90 1 289.175 240.421 0 0 0 0.00175421 
96 1 168.673 270.66 0 0 0 0.00175421 
97 1 198.56 270.468 0 0 0 0.00175421 
98 1 228.892 270.457 0 0 0 0.00175421 
99 1 258.837 270.461 0 0 0 0.00175421 
100 1 289.269 270.442 0 0 0 0.00175421 
157 1 180.616 166.695 0 0 0 0.00175421 
158 1 210.695 166.851 0 0 0 0.00175421 
159 1 240.605 166.946 0 0 0 0.00175421 
160 1 270.807 166.577 0 0 0 0.00175421 
167 1 180.651 196.819 0 0 0 0.00175421 
168 1 210.706 196.748 0 0 0 0.00175421 
169 1 240.752 196.762 0 0 0 0.00175421 
170 1 270.617 196.675 0 0 0 0.00175421 
177 1 180.762 226.698 0 0 0 0.00175421 
178 1 210.769 226.782 0 0 0 0.00175421 
179 1 240.613 226.841 0 0 0 0.00175421 
180 1 270.687 226.657 0 0 0 0.00175421 
187 1 180.582 256.977 0 0 0 0.00175421 
188 1 210.624 256.794 0 0 0 0.00175421 
189 1 240.761 256.781 0 0 0 0.00175421 
190 1 270.689 256.79 0 0 0 0.00175421 
197 1 180.6 287.179 0 0 0 0.00175421 
198 1 210.656 287.432 0 0 0 0.00175421 
199 1 240.724 287.451 0 0 0 0.00175421 
200 1 270.631 287.43 0 0 0 0.00175421 
206 1 301.513 166.865 0 0 0 0.00175421 
207 1 301.433 196.822 0 0 0 0.00175421 
208 1 301.383 227.022 0 0 0 0.00175421 
209 1 301.494 256.923 0 0 0 0.00175421 
210 1 301.49 287.242 0 0 0 0.00175421 
216 1 168.917 301.429 0 0 0 0.00175421 
217 1 199.238 301.514 0 0 0 0.00175421 
218 1 229.038 301.526 0 0 0 0.00175421 
219 1 259.023 301.5 0 0 0 0.00175421 
220 1 289.611 301.399 0 0 0 0.00175421 
277 2 180 165 0 0 5 0 
278 2 210 165 0 0 5 0 
279 2 240 165 0 0 5 0 
280 2 270 165 0 0 5 0 
287 2 180 195 0 0 5 0 
288 2 210 195 0 0 5 0 
289 2 240 195 0 0 5 0 
290 2 270 195 0 0 5 0 
297 2 180 225 0 0 5 0 
298 2 210 225 0 0 5 0 
299 2 240 225 0 0 5 0 
300 2 270 225 0 0 5 0 
307 2 180 255 0 0 5 0 
308 2 210 255 0 0 5 0 
309 2 240 255 0 0 5 0 
310 2 270 255 0 0 5 0 
317 2 180 285 0 0 5 0 
318 2 210 285 0 0 5 0 
319 2 240 285 0 0 5 0 
320 2 270 285 0 0 5 0 
326 2 300 165 0 0 5 0 
327 2 300 195 0 0 5 0 
328 2 300 225 0 0 5 0 
329 2 300 255 0 0 5 0 
330 2 300 285 0 0 5 0 
396 3 165 180 0 10 0 0 
397 3 195 180 0 10 0 0 
398 3 225 180 0 10 0 0 
399 3 255 180 0 10 0 0 
400 3 285 180 0 10 0 0 
406 3 165 210 0 10 0 0 
407 3 195 210 0 10 0 0 
408 3 225 210 0 10 0 0 
409 3 255 210 0 10 0 0 
410 3 285 210 0 10 0 0 
416 3 165 240 0 10 0 0 
417 3 195 240 0 10 0 0 
418 3 225 240 0 10 0 0 
419 3 255 240 0 10 0 0 
420 3 285 240 0 10 0 0 
426 3 165 270 0 10 0 0 
427 3 195 270 0 10 0 0 
428 3 225 270 0 10 0 0 
429 3 255 270 0 10 0 0 
430 3 285 270 0 10 0 0 
436 3 165 300 0 10 0 0 
437 3 195 300 0 10 0 0 
438 3 225 300 0 10 0 0 
439 3 255 300 0 10 0 0 
440 3 285 300 0 10 0 0 
ITEM: TIMESTEP
20
ITEM: NUMBER OF ATOMS
440
ITEM: BOX BOUNDS ss ss pp
-9.9307298155439028e-01 3.0165139971954522e+02
-1.2983909755677667e+00 3.0156241630524880e+02
-2.0000000000000000e-02 2.0000000000000000e-02
ITEM: ATOMS id type x y z mux muy muz 
1 1 18.3615 -1.06842 0 0 0 0.00175421 
2 1 49.2834 -1.23064 0 0 0 0.00175421 
3 1 79.33 -1.2098 0 0 0 0.00175421 
4 1 109.522 -1.24631 0 0 0 0.00175421 
5 1 139.531 -1.35503 0 0 0 0.00175421 
11 1 17.0408 30.0038 0 0 0 0.00175421 
12 1 47.8183 30.1594 0 0 0 0.00175421 
13 1 77.7849 29.997 0 0 0 0.00175421 
14 1 107.626 30.1936 0 0 0 0.00175421 
15 1 137.764 30.0412 0 0 0 0.00175421 
21 1 16.7801 60.2253 0 0 0 0.00175421 
22 1 47.5363 60.2532 0 0 0 0.00175421 
23 1 77.4635 60.2701 0 0 0 0.00175421 
24 1 107.725 60.2804 0 0 0 0.00175421 
25 1 137.724 60.3473 0 0 0 0.00175421 
31 1 16.6229 90.4601 0 0 0 0.00175421 
32 1 47.508 90.2406 0 0 0 0.00175421 
33 1 77.8288 90.2377 0 0 0 0.00175421 
34 1 107.287 90.1887 0 0 0 0.00175421 
35 1 137.401 90.2671 0 0 0 0.00175421 
41 1 16.3303 120.235 0 0 0 0.00175421 
42 1 47.4875 120.276 0 0 0 0.00175421 
43 1 77.7571 120.297 0 0 0 0.00175421 
44 1 107.993 120.266 0 0 0 0.00175421 
45 1 137.913 120.215 0 0 0 0.00175421 
51 1 17.0883 150.391 0 0 0 0.00175421 
52 1 47.329 150.308 0 0 0 0.00175421 
53 1 77.7199 150.242 0 0 0 0.00175421 
54 1 107.511 150.275 0 0 0 0.00175421 
55 1 137.907 150.207 0 0 0 0.00175421 
101 1 -0.897558 16.9739 0 0 0 0.00175421 
102 1 30.4361 15.3756 0 0 0 0.00175421 
103 1 60.3643 15.2115 0 0 0 0.00175421 
104 1 90.4632 15.0899 0 0 0 0.00175421 
105 1 120.441 15.2544 0 0 0 0.00175421 
106 1 150.654 15.1527 0 0 0 0.00175421 
111 1 -0.961313 47.6147 0 0 0 0.00175421 
112 1 30.2475 46.0933 0 0 0 0.00175421 
113 1 60.6224 46.0177 0 0 0 0.00175421 
114 1 90.5376 46.1967 0 0 0 0.00175421 
115 1 120.446 45.8334 0 0 0 0.00175421 
116 1 150.471 46.0977 0 0 0 0.00175421 
121 1 -1.07491 77.2764 0 0 0 0.00175421 
122 1 30.361 76.5642 0 0 0 0.00175421 
123 1 60.4696 76.2262 0 0 0 0.00175421 
124 1 90.5199 76.0309 0 0 0 0.00175421 
125 1 120.527 76.3627 0 0 0 0.00175421 
126 1 150.606 76.0339 0 0 0 0.00175421 
131 1 -1.1204 107.436 0 0 0 0.00175421 
132 1 30.2852 106.634 0 0 0 0.00175421 
133 1 60.3449 106.204 0 0 0 0.00175421 
134 1 90.5676 106.494 0 0 0 0.00175421 
135 1 120.48 105.943 0 0 0 0.00175421 
136 1 150.58 106.093 0 0 0 0.00175421 
141 1 -1.12687 137.227 0 0 0 0.00175421 
142 1 30.2607 136.223 0 0 0 0.00175421 
143 1 60.3945 136.221 0 0 0 0.00175421 
144 1 90.5616 136.341 0 0 0 0.00175421 
145 1 120.377 136.54 0 0 0 0.00175421 
146 1 150.555 136.3 0 0 0 0.00175421 
221 2 0 15 0 0 5 0 
222 2 30 15 0 0 5 0 
223 2 60 15 0 0 5 0 
224 2 90 15 0 0 5 0 
225 2 120 15 0 0 5 0 
226 2 150 15 0 0 5 0 
231 2 0 45 0 0 5 0 
232 2 30 45 0 0 5 0 
233 2 60 45 0 0 5 0 
234 2 90 45 0 0 5 0 
235 2 120 45 0 0 5 0 
236 2 150 45 0 0 5 0 
241 2 0 75 0 0 5 0 
242 2 30 75 0 0 5 0 
243 2 60 75 0 0 5 0 
244 2 90 75 0 0 5 0 
245 2 120 75 0 0 5 0 
246 2 150 75 0 0 5 0 
251 2 0 105 0 0 5 0 
252 2 30 105 0 0 5 0 
253 2 60 105 0 0 5 0 
254 2 90 105 0 0 5 0 
255 2 120 105 0 0 5 0 
256 2 150 105 0 0 5 0 
261 2 0 135 0 0 5 0 
262 2 30 135 0 0 5 0 
263 2 60 135 0 0 5 0 
264 2 90 135 0 0 5 0 
265 2 120 135 0 0 5 0 
266 2 150 135 0 0 5 0 
331 3 15 0 0 10 0 0 
332 3 45 0 0 10 0 0 
333 3 75 0 0 10 0 0 
334 3 105 0 0 10 0 0 
335 3 135 0 0 10 0 0 
341 3 15 30 0 10 0 0 
342 3 45 30 0 10 0 0 
343 3 75 30 0 10 0 0 
344 3 105 30 0 10 0 0 
345 3 135 30 0 10 0 0 
351 3 15 60 0 10 0 0 
352 3 45 60 0 10 0 0 
353 3 75 60 0 10 0 0 
354 3 105 60 0 10 0 0 
355 3 135 60 0 10 0 0 
361 3 15 90 0 10 0 0 
362 3 45 90 0 10 0 0 
363 3 75 90 0 10 0 0 
364 3 105 90 0 10 0 0 
365 3 135 90 0 10 0 0 
371 3 15 120 0 10 0 0 
372 3 45 120 0 10 0 0 
373 3 75 120 0 10 0 0 
374 3 105 120 0 10 0 0 