units micro
atom_style hybrid sphere paramagnet bond
boundary s s p
dimension 2
neighbor 4.0 nsq
pair_style hybrid lj/cut/dipole/cut 0 200
bond_style biharmonic

### ---Create Particles and Region--- ###
read_data ./test.lmpdata
  orthogonal box = (-3 -3 -0.02) to (3 3 0.02)
  1 by 1 by 1 MPI processor grid
  reading atoms ...
  2 atoms
  scanning bonds ...
  1 = max bonds/atom
  reading bonds ...
  1 bonds
  1 = max # of 1-2 neighbors
  0 = max # of 1-3 neighbors
  0 = max # of 1-4 neighbors
  1 = max # of special neighbors
  special bonds CPU = 6.38962e-05 secs
  read_data CPU = 0.000438929 secs
group Atoms type 1
1 atoms in group Atoms
group Traps type 2
1 atoms in group Traps
mass * 1

### ---Variables--- ###

## magnetic field
variable Bmag atom 0.0
variable freq atom 0.0
variable theta atom 0.0
variable phi atom 0.0

variable fieldx atom v_Bmag*cos(v_freq*time*2*PI+v_phi)*sin(v_theta)
variable fieldy atom v_Bmag*sin(v_freq*time*2*PI+v_phi)*sin(v_theta)
variable fieldz atom v_Bmag*cos(v_theta)

### ---Fixes--- ###

fix 	1 Atoms setdipole v_fieldx v_fieldy v_fieldz 0
fix 	2 Atoms bd 300 0.001 312424

fix     3 Atoms addforce 0 0 -0.0

fix 	5 all enforce2d_bd

### ---Run Commands--- ###
timestep 	1000
dump 	3 all custom 100 ./test.lammpstrj id type x	 y	 z	 fx	 fy	 fz
thermo_style 	custom step atoms
thermo 	100
run 	10000000
Neighbor list info ...
  update every 1 steps, delay 10 steps, check yes
  max neighbors/atom: 2000, page size: 100000
  master list distance cutoff = 204
  ghost atom cutoff = 204
  3 neighbor lists, perpetual/occasional/extra = 3 0 0
  (1) pair lj/cut/dipole/cut, perpetual, skip from (3)
      attributes: half, newton on
      pair build: skip
      stencil: none
      bin: none
  (2) fix setdipole, perpetual
      attributes: full, newton on
      pair build: full/nsq
      stencil: none
      bin: none
  (3) neighbor class addition, perpetual, half/full from (2)
      attributes: half, newton on
      pair build: halffull/newton
      stencil: none
      bin: none
WARNING: Proc sub-domain size < neighbor skin, could lead to lost atoms (../domain.cpp:935)
Per MPI rank memory allocation (min/avg/max) = 2.172 | 2.172 | 2.172 Mbytes
Step Atoms 
       0        2 
     100        2 
     200        2 
     300        2 
     400        2 
     500        2 
     600        2 
     700        2 
     800        2 
     900        2 
    1000        2 
    1100        2 
    1200        2 
    1300        2 
    1400        2 
    1500        2 
    1600        2 
    1700        2 
    1800        2 
    1900        2 
    2000        2 
    2100        2 
    2200        2 
    2300        2 
    2400        2 
    2500        2 
    2600        2 
    2700        2 
    2800        2 
    2900        2 
    3000        2 
    3100        2 
    3200        2 
    3300        2 
    3400        2 
    3500        2 
    3600        2 
    3700        2 
    3800        2 
    3900        2 
    4000        2 
    4100        2 
    4200        2 
    4300        2 
    4400        2 
    4500        2 
    4600        2 
    4700        2 
    4800        2 
    4900        2 
    5000        2 
    5100        2 
    5200        2 
    5300        2 
    5400        2 
    5500        2 
    5600        2 
    5700        2 
    5800        2 
    5900        2 
    6000        2 
    6100        2 
    6200        2 
    6300        2 
    6400        2 
    6500        2 
    6600        2 
    6700        2 
    6800        2 
    6900        2 
    7000        2 
    7100        2 
    7200        2 
    7300        2 
    7400        2 
    7500        2 
    7600        2 
    7700        2 
    7800        2 
    7900        2 
    8000        2 
    8100        2 
    8200        2 
    8300        2 
    8400        2 
    8500        2 
    8600        2 
    8700        2 
    8800        2 
    8900        2 
    9000        2 
    9100        2 
    9200        2 
    9300        2 
    9400        2 
    9500        2 
    9600        2 
    9700        2 
    9800        2 
    9900        2 
   10000        2 
   10100        2 
   10200        2 
   10300        2 
   10400        2 
   10500        2 
   10600        2 
   10700        2 
   10800        2 
   10900        2 
   11000        2 
   11100        2 
   11200        2 
   11300        2 
   11400        2 
   11500        2 
   11600        2 
   11700        2 
   11800        2 
   11900        2 
   12000        2 
   12100        2 
   12200        2 
   12300        2 
   12400        2 
   12500        2 
   12600        2 
   12700        2 
   12800        2 
   12900        2 
   13000        2 
   13100        2 
   13200        2 
   13300        2 
   13400        2 
   13500        2 
   13600        2 
   13700        2 
   13800        2 
   13900        2 
   14000        2 
   14100        2 
   14200        2 
   14300        2 
   14400        2 
   14500        2 
   14600        2 
   14700        2 
   14800        2 
   14900        2 
   15000        2 
   15100        2 
   15200        2 
   15300        2 
   15400        2 
   15500        2 
   15600        2 
   15700        2 
   15800        2 
   15900        2 
   16000        2 
   16100        2 
   16200        2 
   16300        2 
   16400        2 
   16500        2 
   16600        2 
   16700        2 
   16800        2 
   16900        2 
   17000        2 
   17100        2 
   17200        2 
   17300        2 
   17400        2 
   17500        2 
   17600        2 
   17700        2 
   17800        2 
   17900        2 
   18000        2 
   18100        2 
   18200        2 
   18300        2 
   18400        2 
   18500        2 
   18600        2 
   18700        2 
   18800        2 
   18900        2 
   19000        2 
   19100        2 
   19200        2 
   19300        2 
   19400        2 
   19500        2 
   19600        2 
   19700        2 
   19800        2 
   19900        2 
   20000        2 
   20100        2 
   20200        2 
   20300        2 
   20400        2 
   20500        2 
   20600        2 
   20700        2 
   20800        2 
   20900        2 
   21000        2 
   21100        2 
   21200        2 
   21300        2 
   21400        2 
   21500        2 
   21600        2 
   21700        2 
   21800        2 
   21900        2 
   22000        2 
   22100        2 
   22200        2 
   22300        2 
   22400        2 
   22500        2 
   22600        2 
   22700        2 
   22800        2 
   22900        2 
   23000        2 
   23100        2 
   23200        2 
   23300        2 
   23400        2 
   23500        2 
   23600        2 
   23700        2 
   23800        2 
   23900        2 
   24000        2 
   24100        2 
   24200        2 
   24300        2 
   24400        2 
   24500        2 
   24600        2 
   24700        2 
   24800        2 
   24900        2 
   25000        2 
   25100        2 
   25200        2 
   25300        2 
   25400        2 
   25500        2 
   25600        2 
   25700        2 
   25800        2 
   25900        2 
   26000        2 
   26100        2 
   26200        2 
   26300        2 
   26400        2 
   26500        2 
   26600        2 
   26700        2 
   26800        2 
   26900        2 
   27000        2 
   27100        2 
   27200        2 
   27300        2 
   27400        2 
   27500        2 
   27600        2 
   27700        2 
   27800        2 
   27900        2 
   28000        2 
   28100        2 
   28200        2 
   28300        2 
   28400        2 
   28500        2 
   28600        2 
   28700        2 
   28800        2 
   28900        2 
   29000        2 
   29100        2 
   29200        2 
   29300        2 
   29400        2 
   29500        2 
   29600        2 
   29700        2 
   29800        2 
   29900        2 
   30000        2 
   30100        2 
   30200        2 
   30300        2 
   30400        2 
   30500        2 
   30600        2 
   30700        2 
   30800        2 
   30900        2 
   31000        2 
   31100        2 
   31200        2 
   31300        2 
   31400        2 
   31500        2 
   31600        2 
   31700        2 
   31800        2 
   31900        2 
   32000        2 
   32100        2 
   32200        2 
   32300        2 
   32400        2 
   32500        2 
   32600        2 
   32700        2 
   32800        2 
   32900        2 
   33000        2 
   33100        2 
   33200        2 
   33300        2 
   33400        2 
   33500        2 
   33600        2 
   33700        2 
   33800        2 
   33900        2 
   34000        2 
   34100        2 
   34200        2 
   34300        2 
   34400        2 
   34500        2 
   34600        2 
   34700        2 
   34800        2 
   34900        2 
   35000        2 
   35100        2 
   35200        2 
   35300        2 
   35400        2 
   35500        2 
   35600        2 
   35700        2 
   35800        2 
   35900        2 
   36000        2 
   36100        2 
   36200        2 
   36300        2 
   36400        2 
   36500        2 
   36600        2 
   36700        2 
   36800        2 
   36900        2 
   37000        2 
   37100        2 
   37200        2 
   37300        2 
   37400        2 
   37500        2 
   37600        2 
   37700        2 
   37800        2 
   37900        2 
   38000        2 
   38100        2 
   38200        2 
   38300        2 
   38400        2 
   38500        2 
   38600        2 
   38700        2 
   38800        2 
   38900        2 
   39000        2 
   39100        2 
   39200        2 
   39300        2 
   39400        2 
   39500        2 
   39600        2 
   39700        2 
   39800        2 
   39900        2 
   40000        2 
   40100        2 
   40200        2 
   40300        2 
   40400        2 
   40500        2 
   40600        2 
   40700        2 
   40800        2 
   40900        2 
   41000        2 
   41100        2 
   41200        2 
   41300        2 
   41400        2 
   41500        2 
   41600        2 
   41700        2 
   41800        2 
   41900        2 
   42000        2 
   42100        2 
   42200        2 
   42300        2 
   42400        2 
   42500        2 
   42600        2 
   42700        2 
   42800        2 
   42900        2 
   43000        2 
   43100        2 
   43200        2 
   43300        2 
   43400        2 
   43500        2 
   43600        2 
   43700        2 
   43800        2 
   43900        2 
   44000        2 
   44100        2 
   44200        2 
   44300        2 
   44400        2 
   44500        2 
   44600        2 
   44700        2 
   44800        2 
   44900        2 
   45000        2 
   45100        2 
   45200        2 
   45300        2 
   45400        2 
   45500        2 
   45600        2 
   45700        2 
   45800        2 
   45900        2 
   46000        2 
   46100        2 
   46200        2 
   46300        2 
   46400        2 
   46500        2 
   46600        2 
   46700        2 
   46800        2 
   46900        2 
   47000        2 
   47100        2 
   47200        2 
   47300        2 
   47400        2 
   47500        2 
   47600        2 
   47700        2 
   47800        2 
   47900        2 
   48000        2 
   48100        2 
   48200        2 
   48300        2 
   48400        2 
   48500        2 
   48600        2 
   48700        2 
   48800        2 
   48900        2 
   49000        2 
   49100        2 
   49200        2 
   49300        2 
   49400        2 
   49500        2 
   49600        2 
   49700        2 
   49800        2 
   49900        2 
   50000        2 
   50100        2 
   50200        2 
   50300        2 
   50400        2 
   50500        2 
   50600        2 
   50700        2 
   50800        2 
   50900        2 
   51000        2 
   51100        2 
   51200        2 
   51300        2 
   51400        2 
   51500        2 
   51600        2 
   51700        2 
   51800        2 
   51900        2 
   52000        2 
   52100        2 
   52200        2 
   52300        2 
   52400        2 
   52500        2 
   52600        2 
   52700        2 
   52800        2 
   52900        2 
   53000        2 
   53100        2 
   53200        2 
   53300        2 
   53400        2 
   53500        2 
   53600        2 
   53700        2 
   53800        2 
   53900        2 
   54000        2 
   54100        2 
   54200        2 
   54300        2 
   54400        2 
   54500        2 
   54600        2 
   54700        2 
   54800        2 
   54900        2 
   55000        2 
   55100        2 
   55200        2 
   55300        2 
   55400        2 
   55500        2 
   55600        2 
   55700        2 
   55800        2 
   55900        2 
   56000        2 
   56100        2 
   56200        2 
   56300        2 
   56400        2 
   56500        2 
   56600        2 
   56700        2 
   56800        2 
   56900        2 
   57000        2 
   57100        2 
   57200        2 
   57300        2 
   57400        2 
   57500        2 
   57600        2 
   57700        2 
   57800        2 
   57900        2 
   58000        2 
   58100        2 
   58200        2 
   58300        2 
   58400        2 
   58500        2 
   58600        2 
   58700        2 
   58800        2 
   58900        2 
   59000        2 
   59100        2 
   59200        2 
   59300        2 
   59400        2 
   59500        2 
   59600        2 
   59700        2 
   59800        2 
   59900        2 
   60000        2 
   60100        2 
   60200        2 
   60300        2 
   60400        2 
   60500        2 
   60600        2 
   60700        2 
   60800        2 
   60900        2 
   61000        2 
   61100        2 
   61200        2 
   61300        2 
   61400        2 
   61500        2 
   61600        2 
   61700        2 
   61800        2 
   61900        2 
   62000        2 
   62100        2 
   62200        2 
   62300        2 
   62400        2 
   62500        2 
   62600        2 
   62700        2 
   62800        2 
   62900        2 
   63000        2 
   63100        2 
   63200        2 
   63300        2 
   63400        2 
   63500        2 
   63600        2 
   63700        2 
   63800        2 
   63900        2 
   64000        2 
   64100        2 
   64200        2 
   64300        2 
   64400        2 
   64500        2 
   64600        2 
   64700        2 
   64800        2 
   64900        2 
   65000        2 
   65100        2 
   65200        2 
   65300        2 
   65400        2 
   65500        2 
   65600        2 
   65700        2 
   65800        2 
   65900        2 
   66000        2 
   66100        2 
   66200        2 
   66300        2 
   66400        2 
   66500        2 
   66600        2 
   66700        2 
   66800        2 
   66900        2 
   67000        2 
   67100        2 
   67200        2 
   67300        2 
   67400        2 
   67500        2 
   67600        2 
   67700        2 
   67800        2 
   67900        2 
   68000        2 
   68100        2 
   68200        2 
   68300        2 
   68400        2 
   68500        2 
   68600        2 
   68700        2 
   68800        2 
   68900        2 
   69000        2 
   69100        2 
   69200        2 
   69300        2 
   69400        2 
   69500        2 
   69600        2 
   69700        2 
   69800        2 
   69900        2 
   70000        2 
   70100        2 
   70200        2 
   70300        2 
   70400        2 
   70500        2 
   70600        2 
   70700        2 
   70800        2 
   70900        2 
   71000        2 
   71100        2 
   71200        2 
   71300        2 
   71400        2 
   71500        2 
   71600        2 
   71700        2 
   71800        2 
   71900        2 
   72000        2 
   72100        2 
   72200        2 
   72300        2 
   72400        2 
   72500        2 
   72600        2 
   72700        2 
   72800        2 
   72900        2 
   73000        2 
   73100        2 
   73200        2 
   73300        2 
   73400        2 
   73500        2 
   73600        2 
   73700        2 
   73800        2 
   73900        2 
   74000        2 
   74100        2 
   74200        2 
   74300        2 
   74400        2 
   74500        2 
   74600        2 
   74700        2 
   74800        2 
   74900        2 
   75000        2 
   75100        2 
   75200        2 
   75300        2 
   75400        2 
   75500        2 
   75600        2 
   75700        2 
   75800        2 
   75900        2 
   76000        2 
   76100        2 
   76200        2 
   76300        2 
   76400        2 
   76500        2 
   76600        2 
   76700        2 
   76800        2 
   76900        2 
   77000        2 
   77100        2 
   77200        2 
   77300        2 
   77400        2 
   77500        2 
   77600        2 
   77700        2 
   77800        2 
   77900        2 
   78000        2 
   78100        2 
   78200        2 
   78300        2 
   78400        2 
   78500        2 
   78600        2 
   78700        2 
   78800        2 
   78900        2 
   79000        2 
   79100        2 
   79200        2 
   79300        2 
   79400        2 
   79500        2 
   79600        2 
   79700        2 
   79800        2 
   79900        2 
   80000        2 
   80100        2 
   80200        2 
   80300        2 
   80400        2 
   80500        2 
   80600        2 
   80700        2 
   80800        2 
   80900        2 
   81000        2 
   81100        2 
   81200        2 
   81300        2 
   81400        2 
   81500        2 
   81600        2 
   81700        2 
   81800        2 
   81900        2 
   82000        2 
   82100        2 
   82200        2 
   82300        2 
   82400        2 
   82500        2 
   82600        2 
   82700        2 
   82800        2 
   82900        2 
   83000        2 
   83100        2 
   83200        2 
   83300        2 
   83400        2 
   83500        2 
   83600        2 
   83700        2 
   83800        2 
   83900        2 
   84000        2 
   84100        2 
   84200        2 
   84300        2 
   84400        2 
   84500        2 
   84600        2 
   84700        2 
   84800        2 
   84900        2 
   85000        2 
   85100        2 
   85200        2 
   85300        2 
   85400        2 
   85500        2 
   85600        2 
   85700        2 
   85800        2 
   85900        2 
   86000        2 
   86100        2 
   86200        2 
   86300        2 
   86400        2 
   86500        2 
   86600        2 
   86700        2 
   86800        2 
   86900        2 
   87000        2 
   87100        2 
   87200        2 
   87300        2 
   87400        2 
   87500        2 
   87600        2 
   87700        2 
   87800        2 
   87900        2 
   88000        2 
   88100        2 
   88200        2 
   88300        2 
   88400        2 
   88500        2 
   88600        2 
   88700        2 
   88800        2 
   88900        2 
   89000        2 
   89100        2 
   89200        2 
   89300        2 
   89400        2 
   89500        2 
   89600        2 
   89700        2 
   89800        2 
   89900        2 
   90000        2 
   90100        2 
   90200        2 
   90300        2 
   90400        2 
   90500        2 
   90600        2 
   90700        2 
   90800        2 
   90900        2 
   91000        2 
   91100        2 
   91200        2 
   91300        2 
   91400        2 
   91500        2 
   91600        2 
   91700        2 
   91800        2 
   91900        2 
   92000        2 
   92100        2 
   92200        2 
   92300        2 
   92400        2 
   92500        2 
   92600        2 
   92700        2 
   92800        2 
   92900        2 
   93000        2 
   93100        2 
   93200        2 
   93300        2 
   93400        2 
   93500        2 
   93600        2 
   93700        2 
   93800        2 
   93900        2 
   94000        2 
   94100        2 
   94200        2 
   94300        2 
   94400        2 
   94500        2 
   94600        2 
   94700        2 
   94800        2 
   94900        2 
   95000        2 
   95100        2 
   95200        2 
   95300        2 
   95400        2 
   95500        2 
   95600        2 
   95700        2 
   95800        2 
   95900        2 
   96000        2 
   96100        2 
   96200        2 
   96300        2 
   96400        2 
   96500        2 
   96600        2 
   96700        2 
   96800        2 
   96900        2 
   97000        2 
   97100        2 
   97200        2 
   97300        2 
   97400        2 
   97500        2 
   97600        2 
   97700        2 
   97800        2 
   97900        2 
   98000        2 
   98100        2 
   98200        2 
   98300        2 
   98400        2 
   98500        2 
   98600        2 
   98700        2 
   98800        2 
   98900        2 
   99000        2 
   99100        2 
   99200        2 
   99300        2 
   99400        2 
   99500        2 
   99600        2 
   99700        2 
   99800        2 
   99900        2 
  100000        2 
  100100        2 
  100200        2 
  100300        2 
  100400        2 
  100500        2 
  100600        2 
  100700        2 
  100800        2 
  100900        2 
  101000        2 
  101100        2 
  101200        2 
  101300        2 
  101400        2 
  101500        2 
  101600        2 
  101700        2 
  101800        2 
  101900        2 
  102000        2 
  102100        2 
  102200        2 
  102300        2 
  102400        2 
  102500        2 
  102600        2 
  102700        2 
  102800        2 
  102900        2 
  103000        2 
  103100        2 
  103200        2 
  103300        2 
  103400        2 
  103500        2 
  103600        2 
  103700        2 
  103800        2 
  103900        2 
  104000        2 
  104100        2 
  104200        2 
  104300        2 
  104400        2 
  104500        2 
  104600        2 
  104700        2 
  104800        2 
  104900        2 
  105000        2 
  105100        2 
  105200        2 
  105300        2 
  105400        2 
  105500        2 
  105600        2 
  105700        2 
  105800        2 
  105900        2 
  106000        2 
  106100        2 
  106200        2 
  106300        2 
  106400        2 
  106500        2 
  106600        2 
  106700        2 
  106800        2 
  106900        2 
  107000        2 
  107100        2 
  107200        2 
  107300        2 
  107400        2 
  107500        2 
  107600        2 
  107700        2 
  107800        2 
  107900        2 
  108000        2 
  108100        2 
  108200        2 
  108300        2 
  108400        2 
  108500        2 
  108600        2 
  108700        2 
  108800        2 
  108900        2 
  109000        2 
  109100        2 
  109200        2 
  109300        2 
  109400        2 
  109500        2 
  109600        2 
  109700        2 
  109800        2 
  109900        2 
  110000        2 
  110100        2 
  110200        2 
  110300        2 
  110400        2 
  110500        2 
  110600        2 
  110700        2 
  110800        2 
  110900        2 
  111000        2 
  111100        2 
  111200        2 
  111300        2 
  111400        2 
  111500        2 
  111600        2 
  111700        2 
  111800        2 
  111900        2 
  112000        2 
  112100        2 
  112200        2 
  112300        2 
  112400        2 
  112500        2 
  112600        2 
  112700        2 
  112800        2 
  112900        2 
  113000        2 
  113100        2 
  113200        2 
  113300        2 
  113400        2 
  113500        2 
  113600        2 
  113700        2 
  113800        2 
  113900        2 
  114000        2 
  114100        2 
  114200        2 
  114300        2 
  114400        2 
  114500        2 
  114600        2 
  114700        2 
  114800        2 
  114900        2 
  115000        2 
  115100        2 
  115200        2 
  115300        2 
  115400        2 
  115500        2 
  115600        2 
  115700        2 
  115800        2 
  115900        2 
  116000        2 
  116100        2 
  116200        2 
  116300        2 
  116400        2 
  116500        2 
  116600        2 
  116700        2 
  116800        2 
  116900        2 
  117000        2 
  117100        2 
  117200        2 
  117300        2 
  117400        2 
  117500        2 
  117600        2 
  117700        2 
  117800        2 
  117900        2 
  118000        2 
  118100        2 
  118200        2 
  118300        2 
  118400        2 
  118500        2 
  118600        2 
  118700        2 
  118800        2 
  118900        2 
  119000        2 
  119100        2 
  119200        2 
  119300        2 
  119400        2 
  119500        2 
  119600        2 
  119700        2 
  119800        2 
  119900        2 
  120000        2 
  120100        2 
  120200        2 
  120300        2 
  120400        2 
  120500        2 
  120600        2 
  120700        2 
  120800        2 
  120900        2 
  121000        2 
  121100        2 
  121200        2 
  121300        2 
  121400        2 
  121500        2 
  121600        2 
  121700        2 
  121800        2 
  121900        2 
  122000        2 
  122100        2 
  122200        2 
  122300        2 
  122400        2 
  122500        2 
  122600        2 
  122700        2 
  122800        2 
  122900        2 
  123000        2 
  123100        2 
  123200        2 
  123300        2 
  123400        2 
  123500        2 
  123600        2 
  123700        2 
  123800        2 
  123900        2 
  124000        2 
  124100        2 
  124200        2 
  124300        2 
  124400        2 
  124500        2 
  124600        2 
  124700        2 
  124800        2 
  124900        2 
  125000        2 
  125100        2 
  125200        2 
  125300        2 
  125400        2 
  125500        2 
  125600        2 
  125700        2 
  125800        2 
  125900        2 
  126000        2 
  126100        2 
  126200        2 
  126300        2 
  126400        2 
  126500        2 
  126600        2 
  126700        2 
  126800        2 
  126900        2 
  127000        2 
  127100        2 
  127200        2 
  127300        2 
  127400        2 
  127500        2 
  127600        2 
  127700        2 
  127800        2 
  127900        2 
  128000        2 
  128100        2 
  128200        2 
  128300        2 
  128400        2 
  128500        2 
  128600        2 
  128700        2 
  128800        2 
  128900        2 
  129000        2 
  129100        2 
  129200        2 
  129300        2 
  129400        2 
  129500        2 
  129600        2 
  129700        2 
  129800        2 
  129900        2 
  130000        2 
  130100        2 
  130200        2 
  130300        2 
  130400        2 
  130500        2 
  130600        2 
  130700        2 
  130800        2 
  130900        2 
  131000        2 
  131100        2 
  131200        2 
  131300        2 
  131400        2 
  131500        2 
  131600        2 
  131700        2 
  131800        2 
  131900        2 
  132000        2 
  132100        2 
  132200        2 
  132300        2 
  132400        2 
  132500        2 
  132600        2 
  132700        2 
  132800        2 
  132900        2 
  133000        2 
  133100        2 
  133200        2 
  133300        2 
  133400        2 
  133500        2 
  133600        2 
  133700        2 
  133800        2 
  133900        2 
  134000        2 
  134100        2 
  134200        2 
  134300        2 
  134400        2 
  134500        2 
  134600        2 
  134700        2 
  134800        2 
  134900        2 
  135000        2 
  135100        2 
  135200        2 
  135300        2 
  135400        2 
  135500        2 
  135600        2 
  135700        2 
  135800        2 
  135900        2 
  136000        2 
  136100        2 
  136200        2 
  136300        2 
  136400        2 
  136500        2 
  136600        2 
  136700        2 
  136800        2 
  136900        2 
  137000        2 
  137100        2 
  137200        2 
  137300        2 
  137400        2 
  137500        2 
  137600        2 
  137700        2 
  137800        2 
  137900        2 
  138000        2 
  138100        2 
  138200        2 
  138300        2 
  138400        2 
  138500        2 
  138600        2 
  138700        2 
  138800        2 
  138900        2 
  139000        2 
  139100        2 
  139200        2 
  139300        2 
  139400        2 
  139500        2 
  139600        2 
  139700        2 
  139800        2 
  139900        2 
  140000        2 
  140100        2 
  140200        2 
  140300        2 
  140400        2 
  140500        2 
  140600        2 
  140700        2 
  140800        2 
  140900        2 
  141000        2 
  141100        2 
  141200        2 
  141300        2 
  141400        2 
  141500        2 
  141600        2 
  141700        2 
  141800        2 
  141900        2 
  142000        2 
  142100        2 
  142200        2 
  142300        2 
  142400        2 
  142500        2 
  142600        2 
  142700        2 
  142800        2 
  142900        2 
  143000        2 
  143100        2 
  143200        2 
  143300        2 
  143400        2 
  143500        2 
  143600        2 
  143700        2 
  143800        2 
  143900        2 
  144000        2 
  144100        2 
  144200        2 
  144300        2 
  144400        2 
  144500        2 
  144600        2 
  144700        2 
  144800        2 
  144900        2 
  145000        2 
  145100        2 
  145200        2 
  145300        2 
  145400        2 
  145500        2 
  145600        2 
  145700        2 
  145800        2 
  145900        2 
  146000        2 
  146100        2 
  146200        2 
  146300        2 
  146400        2 
  146500        2 
  146600        2 
  146700        2 
  146800        2 
  146900        2 
  147000        2 
  147100        2 
  147200        2 
  147300        2 
  147400        2 
  147500        2 
  147600        2 
  147700        2 
  147800        2 
  147900        2 
  148000        2 
  148100        2 
  148200        2 
  148300        2 
  148400        2 
  148500        2 
  148600        2 
  148700        2 
  148800        2 
  148900        2 
  149000        2 
  149100        2 
  149200        2 
  149300        2 
  149400        2 
  149500        2 
  149600        2 
  149700        2 
  149800        2 
  149900        2 
  150000        2 
  150100        2 
  150200        2 
  150300        2 
  150400        2 
  150500        2 
  150600        2 
  150700        2 
  150800        2 
  150900        2 
  151000        2 
  151100        2 
  151200        2 
  151300        2 
  151400        2 
  151500        2 
  151600        2 
  151700        2 
  151800        2 
  151900        2 
  152000        2 
  152100        2 
  152200        2 
  152300        2 
  152400        2 
  152500        2 
  152600        2 
  152700        2 
  152800        2 
  152900        2 
  153000        2 
  153100        2 
  153200        2 
  153300        2 
  153400        2 
  153500        2 
  153600        2 
  153700        2 
  153800        2 
  153900        2 
  154000        2 
  154100        2 
  154200        2 
  154300        2 
  154400        2 
  154500        2 
  154600        2 
  154700        2 
  154800        2 
  154900        2 
  155000        2 
  155100        2 
  155200        2 
  155300        2 
  155400        2 
  155500        2 
  155600        2 
  155700        2 
  155800        2 
  155900        2 
  156000        2 
  156100        2 
  156200        2 
  156300        2 
  156400        2 
  156500        2 
  156600        2 
  156700        2 
  156800        2 
  156900        2 
  157000        2 
  157100        2 
  157200        2 
  157300        2 
  157400        2 
  157500        2 
  157600        2 
  157700        2 
  157800        2 
  157900        2 
  158000        2 
  158100        2 
  158200        2 
  158300        2 
  158400        2 
  158500        2 
  158600        2 
  158700        2 
  158800        2 
  158900        2 
  159000        2 
  159100        2 
  159200        2 
  159300        2 
  159400        2 
  159500        2 
  159600        2 
  159700        2 
  159800        2 
  159900        2 
  160000        2 
  160100        2 
  160200        2 
  160300        2 
  160400        2 
  160500        2 
  160600        2 
  160700        2 
  160800        2 
  160900        2 
  161000        2 
  161100        2 
  161200        2 
  161300        2 
  161400        2 
  161500        2 
  161600        2 
  161700        2 
  161800        2 
  161900        2 
  162000        2 
  162100        2 
  162200        2 
  162300        2 
  162400        2 
  162500        2 
  162600        2 
  162700        2 
  162800        2 
  162900        2 
  163000        2 
  163100        2 
  163200        2 
  163300        2 
  163400        2 
  163500        2 
  163600        2 
  163700        2 
  163800        2 
  163900        2 
  164000        2 
  164100        2 
  164200        2 
  164300        2 
  164400        2 
  164500        2 
  164600        2 
  164700        2 
  164800        2 
  164900        2 
  165000        2 
  165100        2 
  165200        2 
  165300        2 
  165400        2 
  165500        2 
  165600        2 
  165700        2 
  165800        2 
  165900        2 
  166000        2 
  166100        2 
  166200        2 
  166300        2 
  166400        2 
  166500        2 
  166600        2 
  166700        2 
  166800        2 
  166900        2 
  167000        2 
  167100        2 
  167200        2 
  167300        2 
  167400        2 
  167500        2 
  167600        2 
  167700        2 
  167800        2 
  167900        2 
  168000        2 
  168100        2 
  168200        2 
  168300        2 
  168400        2 
  168500        2 
  168600        2 
  168700        2 
  168800        2 
  168900        2 
  169000        2 
  169100        2 
  169200        2 
  169300        2 
  169400        2 
  169500        2 
  169600        2 
  169700        2 
  169800        2 
  169900        2 
  170000        2 
  170100        2 
  170200        2 
  170300        2 
  170400        2 
  170500        2 
  170600        2 
  170700        2 
  170800        2 
  170900        2 
  171000        2 
  171100        2 
  171200        2 
  171300        2 
  171400        2 
  171500        2 
  171600        2 
  171700        2 
  171800        2 
  171900        2 
  172000        2 
  172100        2 
  172200        2 
  172300        2 
  172400        2 
  172500        2 
  172600        2 
  172700        2 
  172800        2 
  172900        2 
  173000        2 
  173100        2 
  173200        2 
  173300        2 
  173400        2 
  173500        2 
  173600        2 
  173700        2 
  173800        2 
  173900        2 
  174000        2 
  174100        2 
  174200        2 
  174300        2 
  174400        2 
  174500        2 
  174600        2 
  174700        2 
  174800        2 
  174900        2 
  175000        2 
  175100        2 
  175200        2 
  175300        2 
  175400        2 
  175500        2 
  175600        2 
  175700        2 
  175800        2 
  175900        2 
  176000        2 
  176100        2 
  176200        2 
  176300        2 
  176400        2 
  176500        2 
  176600        2 
  176700        2 
  176800        2 
  176900        2 
  177000        2 
  177100        2 
  177200        2 
  177300        2 
  177400        2 
  177500        2 
  177600        2 
  177700        2 
  177800        2 
  177900        2 
  178000        2 
  178100        2 
  178200        2 
  178300        2 
  178400        2 
  178500        2 
  178600        2 
  178700        2 
  178800        2 
  178900        2 
  179000        2 
  179100        2 
  179200        2 
  179300        2 
  179400        2 
  179500        2 
  179600        2 
  179700        2 
  179800        2 
  179900        2 
  180000        2 
  180100        2 
  180200        2 
  180300        2 
  180400        2 
  180500        2 
  180600        2 
  180700        2 
  180800        2 
  180900        2 
  181000        2 
  181100        2 
  181200        2 
  181300        2 
  181400        2 
  181500        2 
  181600        2 
  181700        2 
  181800        2 
  181900        2 
  182000        2 
  182100        2 
  182200        2 
  182300        2 
  182400        2 
  182500        2 
  182600        2 
  182700        2 
  182800        2 
  182900        2 
  183000        2 
  183100        2 
  183200        2 
  183300        2 
  183400        2 
  183500        2 
  183600        2 
  183700        2 
  183800        2 
  183900        2 
  184000        2 
  184100        2 
  184200        2 
  184300        2 
  184400        2 
  184500        2 
  184600        2 
  184700        2 
  184800        2 
  184900        2 
  185000        2 
  185100        2 
  185200        2 
  185300        2 
  185400        2 
  185500        2 
  185600        2 
  185700        2 
  185800        2 
  185900        2 
  186000        2 
  186100        2 
  186200        2 
  186300        2 
  186400        2 
  186500        2 
  186600        2 
  186700        2 
  186800        2 
  186900        2 
  187000        2 
  187100        2 
  187200        2 
  187300        2 
  187400        2 
  187500        2 
  187600        2 
  187700        2 
  187800        2 
  187900        2 
  188000        2 
  188100        2 
  188200        2 
  188300        2 
  188400        2 
  188500        2 
  188600        2 
  188700        2 
  188800        2 
  188900        2 
  189000        2 
  189100        2 
  189200        2 
  189300        2 
  189400        2 
  189500        2 
  189600        2 
  189700        2 
  189800        2 
  189900        2 
  190000        2 
  190100        2 
  190200        2 
  190300        2 
  190400        2 
  190500        2 
  190600        2 
  190700        2 
  190800        2 
  190900        2 
  191000        2 
  191100        2 
  191200        2 
  191300        2 
  191400        2 
  191500        2 
  191600        2 
  191700        2 
  191800        2 
  191900        2 
  192000        2 
  192100        2 
  192200        2 
  192300        2 
  192400        2 
  192500        2 
  192600        2 
  192700        2 
  192800        2 
  192900        2 
  193000        2 
  193100        2 
  193200        2 
  193300        2 
  193400        2 
  193500        2 
  193600        2 
  193700        2 
  193800        2 
  193900        2 
  194000        2 
  194100        2 
  194200        2 
  194300        2 
  194400        2 
  194500        2 
  194600        2 
  194700        2 
  194800        2 
  194900        2 
  195000        2 
  195100        2 
  195200        2 
  195300        2 
  195400        2 
  195500        2 
  195600        2 
  195700        2 
  195800        2 
  195900        2 
  196000        2 
  196100        2 
  196200        2 
  196300        2 
  196400        2 
  196500        2 
  196600        2 
  196700        2 
  196800        2 
  196900        2 
  197000        2 
  197100        2 
  197200        2 
  197300        2 
  197400        2 
  197500        2 
  197600        2 
  197700        2 
  197800        2 
  197900        2 
  198000        2 
  198100        2 
  198200        2 
  198300        2 
  198400        2 
  198500        2 
  198600        2 
  198700        2 
  198800        2 
  198900        2 
  199000        2 
  199100        2 
  199200        2 
  199300        2 
  199400        2 
  199500        2 
  199600        2 
  199700        2 
  199800        2 
  199900        2 
  200000        2 
  200100        2 
  200200        2 
  200300        2 
  200400        2 
  200500        2 
  200600        2 
  200700        2 
  200800        2 
  200900        2 
  201000        2 
  201100        2 
  201200        2 
  201300        2 
  201400        2 
  201500        2 
  201600        2 
  201700        2 
  201800        2 
  201900        2 
  202000        2 
  202100        2 
  202200        2 
  202300        2 
  202400        2 
  202500        2 
  202600        2 
  202700        2 
  202800        2 
  202900        2 
  203000        2 
  203100        2 
  203200        2 
  203300        2 
  203400        2 
  203500        2 
  203600        2 
  203700        2 
  203800        2 
  203900        2 
  204000        2 
  204100        2 
  204200        2 
  204300        2 
  204400        2 
  204500        2 
  204600        2 
  204700        2 
  204800        2 
  204900        2 
  205000        2 
  205100        2 
  205200        2 
  205300        2 
  205400        2 
  205500        2 
  205600        2 
  205700        2 
  205800        2 
  205900        2 
  206000        2 
  206100        2 
  206200        2 
  206300        2 
  206400        2 
  206500        2 
  206600        2 
  206700        2 
  206800        2 
  206900        2 
  207000        2 
  207100        2 
  207200        2 
  207300        2 
  207400        2 
  207500        2 
  207600        2 
  207700        2 
  207800        2 
  207900        2 
  208000        2 
  208100        2 
  208200        2 
  208300        2 
  208400        2 
  208500        2 
  208600        2 
  208700        2 
  208800        2 
  208900        2 
  209000        2 
  209100        2 
  209200        2 
  209300        2 
  209400        2 
  209500        2 
  209600        2 
  209700        2 
  209800        2 
  209900        2 
  210000        2 
  210100        2 
  210200        2 
  210300        2 
  210400        2 
  210500        2 
  210600        2 
  210700        2 
  210800        2 
  210900        2 
  211000        2 
  211100        2 
  211200        2 
  211300        2 
  211400        2 
  211500        2 
  211600        2 
  211700        2 
  211800        2 
  211900        2 
  212000        2 
  212100        2 
  212200        2 
  212300        2 
  212400        2 
  212500        2 
  212600        2 
  212700        2 
  212800        2 
  212900        2 
  213000        2 
  213100        2 
  213200        2 
  213300        2 
  213400        2 
  213500        2 
  213600        2 
  213700        2 
  213800        2 
  213900        2 
  214000        2 
  214100        2 
  214200        2 
  214300        2 
  214400        2 
  214500        2 
  214600        2 
  214700        2 
  214800        2 
  214900        2 
  215000        2 
  215100        2 
  215200        2 
  215300        2 
  215400        2 
  215500        2 
  215600        2 
  215700        2 
  215800        2 
  215900        2 
  216000        2 
  216100        2 
  216200        2 
  216300        2 
  216400        2 
  216500        2 
  216600        2 
  216700        2 
  216800        2 
  216900        2 
  217000        2 
  217100        2 
  217200        2 
  217300        2 
  217400        2 
  217500        2 
  217600        2 
  217700        2 
  217800        2 
  217900        2 
  218000        2 
  218100        2 
  218200        2 
  218300        2 
  218400        2 
  218500        2 
  218600        2 
  218700        2 
  218800        2 
  218900        2 
  219000        2 
  219100        2 
  219200        2 
  219300        2 
  219400        2 
  219500        2 
  219600        2 
  219700        2 
  219800        2 
  219900        2 
  220000        2 
  220100        2 
  220200        2 
  220300        2 
  220400        2 
  220500        2 
  220600        2 
  220700        2 
  220800        2 
  220900        2 
  221000        2 
  221100        2 
  221200        2 
  221300        2 
  221400        2 
  221500        2 
  221600        2 
  221700        2 
  221800        2 
  221900        2 
  222000        2 
  222100        2 
  222200        2 
  222300        2 
  222400        2 
  222500        2 
  222600        2 
  222700        2 
  222800        2 
  222900        2 
  223000        2 
  223100        2 
  223200        2 
  223300        2 
  223400        2 
  223500        2 
  223600        2 
  223700        2 
  223800        2 
  223900        2 
  224000        2 
  224100        2 
  224200        2 
  224300        2 
  224400        2 
  224500        2 
  224600        2 
  224700        2 
  224800        2 
  224900        2 
  225000        2 
  225100        2 
  225200        2 
  225300        2 
  225400        2 
  225500        2 
  225600        2 
  225700        2 
  225800        2 
  225900        2 
  226000        2 
  226100        2 
  226200        2 
  226300        2 
  226400        2 
  226500        2 
  226600        2 
  226700        2 
  226800        2 
  226900        2 
  227000        2 
  227100        2 
  227200        2 
  227300        2 
  227400        2 
  227500        2 
  227600        2 
  227700        2 
  227800        2 
  227900        2 
  228000        2 
  228100        2 
  228200        2 
  228300        2 
  228400        2 
  228500        2 
  228600        2 
  228700        2 
  228800        2 
  228900        2 
  229000        2 
  229100        2 
  229200        2 
  229300        2 
  229400        2 
  229500        2 
  229600        2 
  229700        2 
  229800        2 
  229900        2 
  230000        2 
  230100        2 
  230200        2 
  230300        2 
  230400        2 
  230500        2 
  230600        2 
  230700        2 
  230800        2 
  230900        2 
  231000        2 
  231100        2 
  231200        2 
  231300        2 
  231400        2 
  231500        2 
  231600        2 
  231700        2 
  231800        2 
  231900        2 
  232000        2 
  232100        2 
  232200        2 
  232300        2 
  232400        2 
  232500        2 
  232600        2 
  232700        2 
  232800        2 
  232900        2 
  233000        2 
  233100        2 
  233200        2 
  233300        2 
  233400        2 
  233500        2 
  233600        2 
  233700        2 
  233800        2 
  233900        2 
  234000        2 
  234100        2 
  234200        2 
  234300        2 
  234400        2 
  234500        2 
  234600        2 
  234700        2 
  234800        2 
  234900        2 
  235000        2 
  235100        2 
  235200        2 
  235300        2 
  235400        2 
  235500        2 
  235600        2 
  235700        2 
  235800        2 
  235900        2 
  236000        2 
  236100        2 
  236200        2 
  236300        2 
  236400        2 
  236500        2 
  236600        2 
  236700        2 
  236800        2 
  236900        2 
  237000        2 
  237100        2 
  237200        2 
  237300        2 
  237400        2 
  237500        2 
  237600        2 
  237700        2 
  237800        2 
  237900        2 
  238000        2 
  238100        2 
  238200        2 
  238300        2 
  238400        2 
  238500        2 
  238600        2 
  238700        2 
  238800        2 
  238900        2 
  239000        2 
  239100        2 
  239200        2 
  239300        2 
  239400        2 
  239500        2 
  239600        2 
  239700        2 
  239800        2 
  239900        2 
  240000        2 
  240100        2 
  240200        2 
  240300        2 
  240400        2 
  240500        2 
  240600        2 
  240700        2 
  240800        2 
  240900        2 
  241000        2 
  241100        2 
  241200        2 
  241300        2 
  241400        2 
  241500        2 
  241600        2 
  241700        2 
  241800        2 
  241900        2 
  242000        2 
  242100        2 
  242200        2 
  242300        2 
  242400        2 
  242500        2 
  242600        2 
  242700        2 
  242800        2 
  242900        2 
  243000        2 
  243100        2 
  243200        2 
  243300        2 
  243400        2 
  243500        2 
  243600        2 
  243700        2 
  243800        2 
  243900        2 
  244000        2 
  244100        2 
  244200        2 
  244300        2 
  244400        2 
  244500        2 
  244600        2 
  244700        2 
  244800        2 
  244900        2 
  245000        2 
  245100        2 
  245200        2 
  245300        2 
  245400        2 
  245500        2 
  245600        2 
  245700        2 
  245800        2 
  245900        2 
  246000        2 
  246100        2 
  246200        2 
  246300        2 
  246400        2 
  246500        2 
  246600        2 
  246700        2 
  246800        2 
  246900        2 
  247000        2 
  247100        2 
  247200        2 
  247300        2 
  247400        2 
  247500        2 
  247600        2 
  247700        2 
  247800        2 
  247900        2 
  248000        2 
  248100        2 
  248200        2 
  248300        2 
  248400        2 
  248500        2 
  248600        2 
  248700        2 
  248800        2 
  248900        2 
  249000        2 
  249100        2 
  249200        2 
  249300        2 
  249400        2 
  249500        2 
  249600        2 
  249700        2 
  249800        2 
  249900        2 
  250000        2 
  250100        2 
  250200        2 
  250300        2 
  250400        2 
  250500        2 
  250600        2 
  250700        2 
  250800        2 
  250900        2 
  251000        2 
  251100        2 
  251200        2 
  251300        2 
  251400        2 
  251500        2 
  251600        2 
  251700        2 
  251800        2 
  251900        2 
  252000        2 
  252100        2 
  252200        2 
  252300        2 
  252400        2 
  252500        2 
  252600        2 
  252700        2 
  252800        2 
  252900        2 
  253000        2 
  253100        2 
  253200        2 
  253300        2 
  253400        2 
  253500        2 
  253600        2 
  253700        2 
  253800        2 
  253900        2 
  254000        2 
  254100        2 
  254200        2 
  254300        2 
  254400        2 
  254500        2 
  254600        2 
  254700        2 
  254800        2 
  254900        2 
  255000        2 
  255100        2 
  255200        2 
  255300        2 
  255400        2 
  255500        2 
  255600        2 
  255700        2 
  255800        2 
  255900        2 
  256000        2 
  256100        2 
  256200        2 
  256300        2 
  256400        2 
  256500        2 
  256600        2 
  256700        2 
  256800        2 
  256900        2 
  257000        2 
  257100        2 
  257200        2 
  257300        2 
  257400        2 
  257500        2 
  257600        2 
  257700        2 
  257800        2 
  257900        2 
  258000        2 
  258100        2 
  258200        2 
  258300        2 
  258400        2 
  258500        2 
  258600        2 
  258700        2 
  258800        2 
  258900        2 
  259000        2 
  259100        2 
  259200        2 
  259300        2 
  259400        2 
  259500        2 
  259600        2 
  259700        2 
  259800        2 
  259900        2 
  260000        2 
  260100        2 
  260200        2 
  260300        2 
  260400        2 
  260500        2 
  260600        2 
  260700        2 
  260800        2 
  260900        2 
  261000        2 
  261100        2 
  261200        2 
  261300        2 
  261400        2 
  261500        2 
  261600        2 
  261700        2 
  261800        2 
  261900        2 
  262000        2 
  262100        2 
  262200        2 
  262300        2 
  262400        2 
  262500        2 
  262600        2 
  262700        2 
  262800        2 
  262900        2 
  263000        2 
  263100        2 
  263200        2 
  263300        2 
  263400        2 
  263500        2 
  263600        2 
  263700        2 
  263800        2 
  263900        2 
  264000        2 
  264100        2 
  264200        2 
  264300        2 
  264400        2 
  264500        2 
  264600        2 
  264700        2 
  264800        2 
  264900        2 
  265000        2 
  265100        2 
  265200        2 
  265300        2 
  265400        2 
  265500        2 
  265600        2 
  265700        2 
  265800        2 
  265900        2 
  266000        2 
  266100        2 
  266200        2 
  266300        2 
  266400        2 
  266500        2 
  266600        2 
  266700        2 
  266800        2 
  266900        2 
  267000        2 
  267100        2 
  267200        2 
  267300        2 
  267400        2 
  267500        2 
  267600        2 
  267700        2 
  267800        2 
  267900        2 
  268000        2 
  268100        2 
  268200        2 
  268300        2 
  268400        2 
  268500        2 
  268600        2 
  268700        2 
  268800        2 
  268900        2 
  269000        2 
  269100        2 
  269200        2 
  269300        2 
  269400        2 
  269500        2 
  269600        2 
  269700        2 
  269800        2 
  269900        2 
  270000        2 
  270100        2 
  270200        2 
  270300        2 
  270400        2 
  270500        2 
  270600        2 
  270700        2 
  270800        2 
  270900        2 
  271000        2 
  271100        2 
  271200        2 
  271300        2 
  271400        2 
  271500        2 
  271600        2 
  271700        2 
  271800        2 
  271900        2 
  272000        2 
  272100        2 
  272200        2 
  272300        2 
  272400        2 
  272500        2 
  272600        2 
  272700        2 
  272800        2 
  272900        2 
  273000        2 
  273100        2 
  273200        2 
  273300        2 
  273400        2 
  273500        2 
  273600        2 
  273700        2 
  273800        2 
  273900        2 
  274000        2 
  274100        2 
  274200        2 
  274300        2 
  274400        2 
  274500        2 
  274600        2 
  274700        2 
  274800        2 
  274900        2 
  275000        2 
  275100        2 
  275200        2 
  275300        2 
  275400        2 
  275500        2 
  275600        2 
  275700        2 
  275800        2 
  275900        2 
  276000        2 
  276100        2 
  276200        2 
  276300        2 
  276400        2 
  276500        2 
  276600        2 
  276700        2 
  276800        2 
  276900        2 
  277000        2 
  277100        2 
  277200        2 
  277300        2 
  277400        2 
  277500        2 
  277600        2 
  277700        2 
  277800        2 
  277900        2 
  278000        2 
  278100        2 
  278200        2 
  278300        2 
  278400        2 
  278500        2 
  278600        2 
  278700        2 
  278800        2 
  278900        2 
  279000        2 
  279100        2 
  279200        2 
  279300        2 
  279400        2 
  279500        2 
  279600        2 
  279700        2 
  279800        2 
  279900        2 
  280000        2 
  280100        2 
  280200        2 
  280300        2 
  280400        2 
  280500        2 
  280600        2 
  280700        2 
  280800        2 
  280900        2 
  281000        2 
  281100        2 
  281200        2 
  281300        2 
  281400        2 
  281500        2 
  281600        2 
  281700        2 
  281800        2 
  281900        2 
  282000        2 
  282100        2 
  282200        2 
  282300        2 
  282400        2 
  282500        2 
  282600        2 
  282700        2 
  282800        2 
  282900        2 
  283000        2 
  283100        2 
  283200        2 
  283300        2 
  283400        2 
  283500        2 
  283600        2 
  283700        2 
  283800        2 
  283900        2 
  284000        2 
  284100        2 
  284200        2 
  284300        2 
  284400        2 
  284500        2 
  284600        2 
  284700        2 
  284800        2 
  284900        2 
  285000        2 
  285100        2 
  285200        2 
  285300        2 
  285400        2 
  285500        2 
  285600        2 
  285700        2 
  285800        2 
  285900        2 
  286000        2 
  286100        2 
  286200        2 
  286300        2 
  286400        2 
  286500        2 
  286600        2 
  286700        2 
  286800        2 
  286900        2 
  287000        2 
  287100        2 
  287200        2 
  287300        2 
  287400        2 
  287500        2 
  287600        2 
  287700        2 
  287800        2 
  287900        2 
  288000        2 
  288100        2 
  288200        2 
  288300        2 
  288400        2 
  288500        2 
  288600        2 
  288700        2 
  288800        2 
  288900        2 
  289000        2 
  289100        2 
  289200        2 
  289300        2 
  289400        2 
  289500        2 
  289600        2 
  289700        2 
  289800        2 
  289900        2 
  290000        2 
  290100        2 
  290200        2 
  290300        2 
  290400        2 
  290500        2 
  290600        2 
  290700        2 
  290800        2 
  290900        2 
  291000        2 
  291100        2 
  291200        2 
  291300        2 
  291400        2 
  291500        2 
  291600        2 
  291700        2 
  291800        2 
  291900        2 
  292000        2 
  292100        2 
  292200        2 
  292300        2 
  292400        2 
  292500        2 
  292600        2 
  292700        2 
  292800        2 
  292900        2 
  293000        2 
  293100        2 
  293200        2 
  293300        2 
  293400        2 
  293500        2 
  293600        2 
  293700        2 
  293800        2 
  293900        2 
  294000        2 
  294100        2 
  294200        2 
  294300        2 
  294400        2 
  294500        2 
  294600        2 
  294700        2 
  294800        2 
  294900        2 
  295000        2 
  295100        2 
  295200        2 
  295300        2 
  295400        2 
  295500        2 
  295600        2 
  295700        2 
  295800        2 
  295900        2 
  296000        2 
  296100        2 
  296200        2 
  296300        2 
  296400        2 
  296500        2 
  296600        2 
  296700        2 
  296800        2 
  296900        2 
  297000        2 
  297100        2 
  297200        2 
  297300        2 
  297400        2 
  297500        2 
  297600        2 
  297700        2 
  297800        2 
  297900        2 
  298000        2 
  298100        2 
  298200        2 
  298300        2 
  298400        2 
  298500        2 
  298600        2 
  298700        2 
  298800        2 
  298900        2 
  299000        2 
  299100        2 
  299200        2 
  299300        2 
  299400        2 
  299500        2 
  299600        2 
  299700        2 
  299800        2 
  299900        2 
  300000        2 
  300100        2 
  300200        2 
  300300        2 
  300400        2 
  300500        2 
  300600        2 
  300700        2 
  300800        2 
  300900        2 
  301000        2 
  301100        2 
  301200        2 
  301300        2 
  301400        2 
  301500        2 
  301600        2 
  301700        2 
  301800        2 
  301900        2 
  302000        2 
  302100        2 
  302200        2 
  302300        2 
  302400        2 
  302500        2 
  302600        2 
  302700        2 
  302800        2 
  302900        2 
  303000        2 
  303100        2 
  303200        2 
  303300        2 
  303400        2 
  303500        2 
  303600        2 
  303700        2 
  303800        2 
  303900        2 
  304000        2 
  304100        2 
  304200        2 
  304300        2 
  304400        2 
  304500        2 
  304600        2 
  304700        2 
  304800        2 
  304900        2 
  305000        2 
  305100        2 
  305200        2 
  305300        2 
  305400        2 
  305500        2 
  305600        2 
  305700        2 
  305800        2 
  305900        2 
  306000        2 
  306100        2 
  306200        2 
  306300        2 
  306400        2 
  306500        2 
  306600        2 
  306700        2 
  306800        2 
  306900        2 
  307000        2 
  307100        2 
  307200        2 
  307300        2 
  307400        2 
  307500        2 
  307600        2 
  307700        2 
  307800        2 
  307900        2 
  308000        2 
  308100        2 
  308200        2 
  308300        2 
  308400        2 
  308500        2 
  308600        2 
  308700        2 
  308800        2 
  308900        2 
  309000        2 
  309100        2 
  309200        2 
  309300        2 
  309400        2 
  309500        2 
  309600        2 
  309700        2 
  309800        2 
  309900        2 
  310000        2 
  310100        2 
  310200        2 
  310300        2 
  310400        2 
  310500        2 
  310600        2 
  310700        2 
  310800        2 
  310900        2 
  311000        2 
  311100        2 
  311200        2 
  311300        2 
  311400        2 
  311500        2 
  311600        2 
  311700        2 
  311800        2 
  311900        2 
  312000        2 
  312100        2 
  312200        2 
  312300        2 
  312400        2 
  312500        2 
  312600        2 
  312700        2 
  312800        2 
  312900        2 
  313000        2 
  313100        2 
  313200        2 
  313300        2 
  313400        2 
  313500        2 
  313600        2 
  313700        2 
  313800        2 
  313900        2 
  314000        2 
  314100        2 
  314200        2 
  314300        2 
  314400        2 
  314500        2 
  314600        2 
  314700        2 
  314800        2 
  314900        2 
  315000        2 
  315100        2 
  315200        2 
  315300        2 
  315400        2 
  315500        2 
  315600        2 
  315700        2 
  315800        2 
  315900        2 
  316000        2 
  316100        2 
  316200        2 
  316300        2 
  316400        2 
  316500        2 
  316600        2 
  316700        2 
  316800        2 
  316900        2 
  317000        2 
  317100        2 
  317200        2 
  317300        2 
  317400        2 
  317500        2 
  317600        2 
  317700        2 
  317800        2 
  317900        2 
  318000        2 
  318100        2 
  318200        2 
  318300        2 
  318400        2 
  318500        2 
  318600        2 
  318700        2 
  318800        2 
  318900        2 
  319000        2 
  319100        2 
  319200        2 
  319300        2 
  319400        2 
  319500        2 
  319600        2 
  319700        2 
  319800        2 
  319900        2 
  320000        2 
  320100        2 
  320200        2 
  320300        2 
  320400        2 
  320500        2 
  320600        2 
  320700        2 
  320800        2 
  320900        2 
  321000        2 
  321100        2 
  321200        2 
  321300        2 
  321400        2 
  321500        2 
  321600        2 
  321700        2 
  321800        2 
  321900        2 
  322000        2 
  322100        2 
  322200        2 
  322300        2 
  322400        2 
  322500        2 
  322600        2 
  322700        2 
  322800        2 
  322900        2 
  323000        2 
  323100        2 
  323200        2 
  323300        2 
  323400        2 
  323500        2 
  323600        2 
  323700        2 
  323800        2 
  323900        2 
  324000        2 
  324100        2 
  324200        2 
  324300        2 
  324400        2 
  324500        2 
  324600        2 
  324700        2 
  324800        2 
  324900        2 
  325000        2 
  325100        2 
  325200        2 
  325300        2 
  325400        2 
  325500        2 
  325600        2 
  325700        2 
  325800        2 
  325900        2 
  326000        2 
  326100        2 
  326200        2 
  326300        2 
  326400        2 
  326500        2 
  326600        2 
  326700        2 
  326800        2 
  326900        2 
  327000        2 
  327100        2 
  327200        2 
  327300        2 
  327400        2 
  327500        2 
  327600        2 
  327700        2 
  327800        2 
  327900        2 
  328000        2 
  328100        2 
  328200        2 
  328300        2 
  328400        2 
  328500        2 
  328600        2 
  328700        2 
  328800        2 
  328900        2 
  329000        2 
  329100        2 
  329200        2 
  329300        2 
  329400        2 
  329500        2 
  329600        2 
  329700        2 
  329800        2 
  329900        2 
  330000        2 
  330100        2 
  330200        2 
  330300        2 
  330400        2 
  330500        2 
  330600        2 
  330700        2 
  330800        2 
  330900        2 
  331000        2 
  331100        2 
  331200        2 
  331300        2 
  331400        2 
  331500        2 
  331600        2 
  331700        2 
  331800        2 
  331900        2 
  332000        2 
  332100        2 
  332200        2 
  332300        2 
  332400        2 
  332500        2 
  332600        2 
  332700        2 
  332800        2 
  332900        2 
  333000        2 
  333100        2 
  333200        2 
  333300        2 
  333400        2 
  333500        2 
  333600        2 
  333700        2 
  333800        2 
  333900        2 
  334000        2 
  334100        2 
  334200        2 
  334300        2 
  334400        2 
  334500        2 
  334600        2 
  334700        2 
  334800        2 
  334900        2 
  335000        2 
  335100        2 
  335200        2 
  335300        2 
  335400        2 
  335500        2 
  335600        2 
  335700        2 
  335800        2 
  335900        2 
  336000        2 
  336100        2 
  336200        2 
  336300        2 
  336400        2 
  336500        2 
  336600        2 
  336700        2 
  336800        2 
  336900        2 
  337000        2 
  337100        2 
  337200        2 
  337300        2 
  337400        2 
  337500        2 
  337600        2 
  337700        2 
  337800        2 
  337900        2 
  338000        2 
  338100        2 
  338200        2 
  338300        2 
  338400        2 
  338500        2 
  338600        2 
  338700        2 
  338800        2 
  338900        2 
  339000        2 
  339100        2 
  339200        2 
  339300        2 
  339400        2 
  339500        2 
  339600        2 
  339700        2 
  339800        2 
  339900        2 
  340000        2 
  340100        2 
  340200        2 
  340300        2 
  340400        2 
  340500        2 
  340600        2 
  340700        2 
  340800        2 
  340900        2 
  341000        2 
  341100        2 
  341200        2 
  341300        2 
  341400        2 
  341500        2 
  341600        2 
  341700        2 
  341800        2 
  341900        2 
  342000        2 
  342100        2 
  342200        2 
  342300        2 
  342400        2 
  342500        2 
  342600        2 
  342700        2 
  342800        2 
  342900        2 
  343000        2 
  343100        2 
  343200        2 
  343300        2 
  343400        2 
  343500        2 
  343600        2 
  343700        2 
  343800        2 
  343900        2 
  344000        2 
  344100        2 
  344200        2 
  344300        2 
  344400        2 
  344500        2 
  344600        2 
  344700        2 
  344800        2 
  344900        2 
  345000        2 
  345100        2 
  345200        2 
  345300        2 
  345400        2 
  345500        2 
  345600        2 
  345700        2 
  345800        2 
  345900        2 
  346000        2 
  346100        2 
  346200        2 
  346300        2 
  346400        2 
  346500        2 
  346600        2 
  346700        2 
  346800        2 
  346900        2 
  347000        2 
  347100        2 
  347200        2 
  347300        2 
  347400        2 
  347500        2 
  347600        2 
  347700        2 
  347800        2 
  347900        2 
  348000        2 
  348100        2 
  348200        2 
  348300        2 
  348400        2 
  348500        2 
  348600        2 
  348700        2 
  348800        2 
  348900        2 
  349000        2 
  349100        2 
  349200        2 
  349300        2 
  349400        2 
  349500        2 
  349600        2 
  349700        2 
  349800        2 
  349900        2 
  350000        2 
  350100        2 
  350200        2 
  350300        2 
  350400        2 
  350500        2 
  350600        2 
  350700        2 
  350800        2 
  350900        2 
  351000        2 
  351100        2 
  351200        2 
  351300        2 
  351400        2 
  351500        2 
  351600        2 
  351700        2 
  351800        2 
  351900        2 
  352000        2 
  352100        2 
  352200        2 
  352300        2 
  352400        2 
  352500        2 
  352600        2 
  352700        2 
  352800        2 
  352900        2 
  353000        2 
  353100        2 
  353200        2 
  353300        2 
  353400        2 
  353500        2 
  353600        2 
  353700        2 
  353800        2 
  353900        2 
  354000        2 
  354100        2 
  354200        2 
  354300        2 
  354400        2 
  354500        2 
  354600        2 
  354700        2 
  354800        2 
  354900        2 
  355000        2 
  355100        2 
  355200        2 
  355300        2 
  355400        2 
  355500        2 
  355600        2 
  355700        2 
  355800        2 
  355900        2 
  356000        2 
  356100        2 
  356200        2 
  356300        2 
  356400        2 
  356500        2 
  356600        2 
  356700        2 
  356800        2 
  356900        2 
  357000        2 
  357100        2 
  357200        2 
  357300        2 
  357400        2 
  357500        2 
  357600        2 
  357700        2 
  357800        2 
  357900        2 
  358000        2 
  358100        2 
  358200        2 
  358300        2 
  358400        2 
  358500        2 
  358600        2 
  358700        2 
  358800        2 
  358900        2 
  359000        2 
  359100        2 
  359200        2 
  359300        2 
  359400        2 
  359500        2 
  359600        2 
  359700        2 
  359800        2 
  359900        2 
  360000        2 
  360100        2 
  360200        2 
  360300        2 
  360400        2 
  360500        2 
  360600        2 
  360700        2 
  360800        2 
  360900        2 
  361000        2 
  361100        2 
  361200        2 
  361300        2 
  361400        2 
  361500        2 
  361600        2 
  361700        2 
  361800        2 
  361900        2 
  362000        2 
  362100        2 
  362200        2 
  362300        2 
  362400        2 
  362500        2 
  362600        2 
  362700        2 
  362800        2 
  362900        2 
  363000        2 
  363100        2 
  363200        2 
  363300        2 
  363400        2 
  363500        2 
  363600        2 
  363700        2 
  363800        2 
  363900        2 
  364000        2 
  364100        2 
  364200        2 
  364300        2 
  364400        2 
  364500        2 
  364600        2 
  364700        2 
  364800        2 
  364900        2 
  365000        2 
  365100        2 
  365200        2 
  365300        2 
  365400        2 
  365500        2 
  365600        2 
  365700        2 
  365800        2 
  365900        2 
  366000        2 
  366100        2 
  366200        2 
  366300        2 
  366400        2 
  366500        2 
  366600        2 
  366700        2 
  366800        2 
  366900        2 
  367000        2 
  367100        2 
  367200        2 
  367300        2 
  367400        2 
  367500        2 
  367600        2 
  367700        2 
  367800        2 
  367900        2 
  368000        2 
  368100        2 
  368200        2 
  368300        2 
  368400        2 
  368500        2 
  368600        2 
  368700        2 
  368800        2 
  368900        2 
  369000        2 
  369100        2 
  369200        2 
  369300        2 
  369400        2 
  369500        2 
  369600        2 
  369700        2 
  369800        2 
  369900        2 
  370000        2 
  370100        2 
  370200        2 
  370300        2 
  370400        2 
  370500        2 
  370600        2 
  370700        2 
  370800        2 
  370900        2 
  371000        2 
  371100        2 
  371200        2 
  371300        2 
  371400        2 
  371500        2 
  371600        2 
  371700        2 
  371800        2 
  371900        2 
  372000        2 
  372100        2 
  372200        2 
  372300        2 
  372400        2 
  372500        2 
  372600        2 
  372700        2 
  372800        2 
  372900        2 
  373000        2 
  373100        2 
  373200        2 
  373300        2 
  373400        2 
  373500        2 
  373600        2 
  373700        2 
  373800        2 
  373900        2 
  374000        2 
  374100        2 
  374200        2 
  374300        2 
  374400        2 
  374500        2 
  374600        2 
  374700        2 
  374800        2 
  374900        2 
  375000        2 
  375100        2 
  375200        2 
  375300        2 
  375400        2 
  375500        2 
  375600        2 
  375700        2 
  375800        2 
  375900        2 
  376000        2 
  376100        2 
  376200        2 
  376300        2 
  376400        2 
  376500        2 
  376600        2 
  376700        2 
  376800        2 
  376900        2 
  377000        2 
  377100        2 
  377200        2 
  377300        2 
  377400        2 
  377500        2 
  377600        2 
  377700        2 
  377800        2 
  377900        2 
  378000        2 
  378100        2 
  378200        2 
  378300        2 
  378400        2 
  378500        2 
  378600        2 
  378700        2 
  378800        2 
  378900        2 
  379000        2 
  379100        2 
  379200        2 
  379300        2 
  379400        2 
  379500        2 
  379600        2 
  379700        2 
  379800        2 
  379900        2 
  380000        2 
  380100        2 
  380200        2 
  380300        2 
  380400        2 
  380500        2 
  380600        2 
  380700        2 
  380800        2 
  380900        2 
  381000        2 
  381100        2 
  381200        2 
  381300        2 
  381400        2 
  381500        2 
  381600        2 
  381700        2 
  381800        2 
  381900        2 
  382000        2 
  382100        2 
  382200        2 
  382300        2 
  382400        2 
  382500        2 
  382600        2 
  382700        2 
  382800        2 
  382900        2 
  383000        2 
  383100        2 
  383200        2 
  383300        2 
  383400        2 
  383500        2 
  383600        2 
  383700        2 
  383800        2 
  383900        2 
  384000        2 
  384100        2 
  384200        2 
  384300        2 
  384400        2 
  384500        2 
  384600        2 
  384700        2 
  384800        2 
  384900        2 
  385000        2 
  385100        2 
  385200        2 
  385300        2 
  385400        2 
  385500        2 
  385600        2 
  385700        2 
  385800        2 
  385900        2 
  386000        2 
  386100        2 
  386200        2 
  386300        2 
  386400        2 
  386500        2 
  386600        2 
  386700        2 
  386800        2 
  386900        2 
  387000        2 
  387100        2 
  387200        2 
  387300        2 
  387400        2 
  387500        2 
  387600        2 
  387700        2 
  387800        2 
  387900        2 
  388000        2 
  388100        2 
  388200        2 
  388300        2 
  388400        2 
  388500        2 
  388600        2 
  388700        2 
  388800        2 
  388900        2 
  389000        2 
  389100        2 
  389200        2 
  389300        2 
  389400        2 
  389500        2 
  389600        2 
  389700        2 
  389800        2 
  389900        2 
  390000        2 
  390100        2 
  390200        2 
  390300        2 
  390400        2 
  390500        2 
  390600        2 
  390700        2 
  390800        2 
  390900        2 
  391000        2 
  391100        2 
  391200        2 
  391300        2 
  391400        2 
  391500        2 
  391600        2 
  391700        2 
  391800        2 
  391900        2 
  392000        2 
  392100        2 
  392200        2 
  392300        2 
  392400        2 
  392500        2 
  392600        2 
  392700        2 
  392800        2 
  392900        2 
  393000        2 
  393100        2 
  393200        2 
  393300        2 
  393400        2 
  393500        2 
  393600        2 
  393700        2 
  393800        2 
  393900        2 
  394000        2 
  394100        2 
  394200        2 
  394300        2 
  394400        2 
  394500        2 
  394600        2 
  394700        2 
  394800        2 
  394900        2 
  395000        2 
  395100        2 
  395200        2 
  395300        2 
  395400        2 
  395500        2 
  395600        2 
  395700        2 
  395800        2 
  395900        2 
  396000        2 
  396100        2 
  396200        2 
  396300        2 
  396400        2 
  396500        2 
  396600        2 
  396700        2 
  396800        2 
  396900        2 
  397000        2 
  397100        2 
  397200        2 
  397300        2 
  397400        2 
  397500        2 
  397600        2 
  397700        2 
  397800        2 
  397900        2 
  398000        2 
  398100        2 
  398200        2 
  398300        2 
  398400        2 
  398500        2 
  398600        2 
  398700        2 
  398800        2 
  398900        2 
  399000        2 
  399100        2 
  399200        2 
  399300        2 
  399400        2 
  399500        2 
  399600        2 
  399700        2 
  399800        2 
  399900        2 
  400000        2 
  400100        2 
  400200        2 
  400300        2 
  400400        2 
  400500        2 
  400600        2 
  400700        2 
  400800        2 
  400900        2 
  401000        2 
  401100        2 
  401200        2 
  401300        2 
  401400        2 
  401500        2 
  401600        2 
  401700        2 
  401800        2 
  401900        2 
  402000        2 
  402100        2 
  402200        2 
  402300        2 
  402400        2 
  402500        2 
  402600        2 
  402700        2 
  402800        2 
  402900        2 
  403000        2 
  403100        2 
  403200        2 
  403300        2 
  403400        2 
  403500        2 
  403600        2 
  403700        2 
  403800        2 
  403900        2 
  404000        2 
  404100        2 
  404200        2 
  404300        2 
  404400        2 
  404500        2 
  404600        2 
  404700        2 
  404800        2 
  404900        2 
  405000        2 
  405100        2 
  405200        2 
  405300        2 
  405400        2 
  405500        2 
  405600        2 
  405700        2 
  405800        2 
  405900        2 
  406000        2 
  406100        2 
  406200        2 
  406300        2 
  406400        2 
  406500        2 
  406600        2 
  406700        2 
  406800        2 
  406900        2 
  407000        2 
  407100        2 
  407200        2 
  407300        2 
  407400        2 
  407500        2 
  407600        2 
  407700        2 
  407800        2 
  407900        2 
  408000        2 
  408100        2 
  408200        2 
  408300        2 
  408400        2 
  408500        2 
  408600        2 
  408700        2 
  408800        2 
  408900        2 
  409000        2 
  409100        2 
  409200        2 
  409300        2 
[...]
 9901100        2 
 9901200        2 
 9901300        2 
 9901400        2 
 9901500        2 
 9901600        2 
 9901700        2 
 9901800        2 
 9901900        2 
 9902000        2 
 9902100        2 
 9902200        2 
 9902300        2 
 9902400        2 
 9902500        2 
 9902600        2 
 9902700        2 
 9902800        2 
 9902900        2 
 9903000        2 
 9903100        2 
 9903200        2 
 9903300        2 
 9903400        2 
 9903500        2 
 9903600        2 
 9903700        2 
 9903800        2 
 9903900        2 
 9904000        2 
 9904100        2 
 9904200        2 
 9904300        2 
 9904400        2 
 9904500        2 
 9904600        2 
 9904700        2 
 9904800        2 
 9904900        2 
 9905000        2 
 9905100        2 
 9905200        2 
 9905300        2 
 9905400        2 
 9905500        2 
 9905600        2 
 9905700        2 
 9905800        2 
 9905900        2 
 9906000        2 
 9906100        2 
 9906200        2 
 9906300        2 
 9906400        2 
 9906500        2 
 9906600        2 
 9906700        2 
 9906800        2 
 9906900        2 
 9907000        2 
 9907100        2 
 9907200        2 
 9907300        2 
 9907400        2 
 9907500        2 
 9907600        2 
 9907700        2 
 9907800        2 
 9907900        2 
 9908000        2 
 9908100        2 
 9908200        2 
 9908300        2 
 9908400        2 
 9908500        2 
 9908600        2 
 9908700        2 
 9908800        2 
 9908900        2 
 9909000        2 
 9909100        2 
 9909200        2 
 9909300        2 
 9909400        2 
 9909500        2 
 9909600        2 
 9909700        2 
 9909800        2 
 9909900        2 
 9910000        2 
 9910100        2 
 9910200        2 
 9910300        2 
 9910400        2 
 9910500        2 
 9910600        2 
 9910700        2 
 9910800        2 
 9910900        2 
 9911000        2 
 9911100        2 
 9911200        2 
 9911300        2 
 9911400        2 
 9911500        2 
 9911600        2 
 9911700        2 
 9911800        2 
 9911900        2 
 9912000        2 
 9912100        2 
 9912200        2 
 9912300        2 
 9912400        2 
 9912500        2 
 9912600        2 
 9912700        2 
 9912800        2 
 9912900        2 
 9913000        2 
 9913100        2 
 9913200        2 
 9913300        2 
 9913400        2 
 9913500        2 
 9913600        2 
 9913700        2 
 9913800        2 
 9913900        2 
 9914000        2 
 9914100        2 
 9914200        2 
 9914300        2 
 9914400        2 
 9914500        2 
 9914600        2 
 9914700        2 
 9914800        2 
 9914900        2 
 9915000        2 
 9915100        2 
 9915200        2 
 9915300        2 
 9915400        2 
 9915500        2 
 9915600        2 
 9915700        2 
 9915800        2 
 9915900        2 
 9916000        2 
 9916100        2 
 9916200        2 
 9916300        2 
 9916400        2 
 9916500        2 
 9916600        2 
 9916700        2 
 9916800        2 
 9916900        2 
 9917000        2 
 9917100        2 
 9917200        2 
 9917300        2 
 9917400        2 
 9917500        2 
 9917600        2 
 9917700        2 
 9917800        2 
 9917900        2 
 9918000        2 
 9918100        2 
 9918200        2 
 9918300        2 
 9918400        2 
 9918500        2 
 9918600        2 
 9918700        2 
 9918800        2 
 9918900        2 
 9919000        2 
 9919100        2 
 9919200        2 
 9919300        2 
 9919400        2 
 9919500        2 
 9919600        2 
 9919700        2 
 9919800        2 
 9919900        2 
 9920000        2 
 9920100        2 
 9920200        2 
 9920300        2 
 9920400        2 
 9920500        2 
 9920600        2 
 9920700        2 
 9920800        2 
 9920900        2 
 9921000        2 
 9921100        2 
 9921200        2 
 9921300        2 
 9921400        2 
 9921500        2 
 9921600        2 
 9921700        2 
 9921800        2 
 9921900        2 
 9922000        2 
 9922100        2 
 9922200        2 
 9922300        2 
 9922400        2 
 9922500        2 
 9922600        2 
 9922700        2 
 9922800        2 
 9922900        2 
 9923000        2 
 9923100        2 
 9923200        2 
 9923300        2 
 9923400        2 
 9923500        2 
 9923600        2 
 9923700        2 
 9923800        2 
 9923900        2 
 9924000        2 
 9924100        2 
 9924200        2 
 9924300        2 
 9924400        2 
 9924500        2 
 9924600        2 
 9924700        2 
 9924800        2 
 9924900        2 
 9925000        2 
 9925100        2 
 9925200        2 
 9925300        2 
 9925400        2 
 9925500        2 
 9925600        2 
 9925700        2 
 9925800        2 
 9925900        2 
 9926000        2 
 9926100        2 
 9926200        2 
 9926300        2 
 9926400        2 
 9926500        2 
 9926600        2 
 9926700        2 
 9926800        2 
 9926900        2 
 9927000        2 
 9927100        2 
 9927200        2 
 9927300        2 
 9927400        2 
 9927500        2 
 9927600        2 
 9927700        2 
 9927800        2 
 9927900        2 
 9928000        2 
 9928100        2 
 9928200        2 
 9928300        2 
 9928400        2 
 9928500        2 
 9928600        2 
 9928700        2 
 9928800        2 
 9928900        2 
 9929000        2 
 9929100        2 
 9929200        2 
 9929300        2 
 9929400        2 
 9929500        2 
 9929600        2 
 9929700        2 
 9929800        2 
 9929900        2 
 9930000        2 
 9930100        2 
 9930200        2 
 9930300        2 
 9930400        2 
 9930500        2 
 9930600        2 
 9930700        2 
 9930800        2 
 9930900        2 
 9931000        2 
 9931100        2 
 9931200        2 
 9931300        2 
 9931400        2 
 9931500        2 
 9931600        2 
 9931700        2 
 9931800        2 
 9931900        2 
 9932000        2 
 9932100        2 
 9932200        2 
 9932300        2 
 9932400        2 
 9932500        2 
 9932600        2 
 9932700        2 
 9932800        2 
 9932900        2 
 9933000        2 
 9933100        2 
 9933200        2 
 9933300        2 
 9933400        2 
 9933500        2 
 9933600        2 
 9933700        2 
 9933800        2 
 9933900        2 
 9934000        2 
 9934100        2 
 9934200        2 
 9934300        2 
 9934400        2 
 9934500        2 
 9934600        2 
 9934700        2 
 9934800        2 
 9934900        2 
 9935000        2 
 9935100        2 
 9935200        2 
 9935300        2 
 9935400        2 
 9935500        2 
 9935600        2 
 9935700        2 
 9935800        2 
 9935900        2 
 9936000        2 
 9936100        2 
 9936200        2 
 9936300        2 
 9936400        2 
 9936500        2 
 9936600        2 
 9936700        2 
 9936800        2 
 9936900        2 
 9937000        2 
 9937100        2 
 9937200        2 
 9937300        2 
 9937400        2 
 9937500        2 
 9937600        2 
 9937700        2 
 9937800        2 
 9937900        2 
 9938000        2 
 9938100        2 
 9938200        2 
 9938300        2 
 9938400        2 
 9938500        2 
 9938600        2 
 9938700        2 
 9938800        2 
 9938900        2 
 9939000        2 
 9939100        2 
 9939200        2 
 9939300        2 
 9939400        2 
 9939500        2 
 9939600        2 
 9939700        2 
 9939800        2 
 9939900        2 
 9940000        2 
 9940100        2 
 9940200        2 
 9940300        2 
 9940400        2 
 9940500        2 
 9940600        2 
 9940700        2 
 9940800        2 
 9940900        2 
 9941000        2 
 9941100        2 
 9941200        2 
 9941300        2 
 9941400        2 
 9941500        2 
 9941600        2 
 9941700        2 
 9941800        2 
 9941900        2 
 9942000        2 
 9942100        2 
 9942200        2 
 9942300        2 
 9942400        2 
 9942500        2 
 9942600        2 
 9942700        2 
 9942800        2 
 9942900        2 
 9943000        2 
 9943100        2 
 9943200        2 
 9943300        2 
 9943400        2 
 9943500        2 
 9943600        2 
 9943700        2 
 9943800        2 
 9943900        2 
 9944000        2 
 9944100        2 
 9944200        2 
 9944300        2 
 9944400        2 
 9944500        2 
 9944600        2 
 9944700        2 
 9944800        2 
 9944900        2 
 9945000        2 
 9945100        2 
 9945200        2 
 9945300        2 
 9945400        2 
 9945500        2 
 9945600        2 
 9945700        2 
 9945800        2 
 9945900        2 
 9946000        2 
 9946100        2 
 9946200        2 
 9946300        2 
 9946400        2 
 9946500        2 
 9946600        2 
 9946700        2 
 9946800        2 
 9946900        2 
 9947000        2 
 9947100        2 
 9947200        2 
 9947300        2 
 9947400        2 
 9947500        2 
 9947600        2 
 9947700        2 
 9947800        2 
 9947900        2 
 9948000        2 
 9948100        2 
 9948200        2 
 9948300        2 
 9948400        2 
 9948500        2 
 9948600        2 
 9948700        2 
 9948800        2 
 9948900        2 
 9949000        2 
 9949100        2 
 9949200        2 
 9949300        2 
 9949400        2 
 9949500        2 
 9949600        2 
 9949700        2 
 9949800        2 
 9949900        2 
 9950000        2 
 9950100        2 
 9950200        2 
 9950300        2 
 9950400        2 
 9950500        2 
 9950600        2 
 9950700        2 
 9950800        2 
 9950900        2 
 9951000        2 
 9951100        2 
 9951200        2 
 9951300        2 
 9951400        2 
 9951500        2 
 9951600        2 
 9951700        2 
 9951800        2 
 9951900        2 
 9952000        2 
 9952100        2 
 9952200        2 
 9952300        2 
 9952400        2 
 9952500        2 
 9952600        2 
 9952700        2 
 9952800        2 
 9952900        2 
 9953000        2 
 9953100        2 
 9953200        2 
 9953300        2 
 9953400        2 
 9953500        2 
 9953600        2 
 9953700        2 
 9953800        2 
 9953900        2 
 9954000        2 
 9954100        2 
 9954200        2 
 9954300        2 
 9954400        2 
 9954500        2 
 9954600        2 
 9954700        2 
 9954800        2 
 9954900        2 
 9955000        2 
 9955100        2 
 9955200        2 
 9955300        2 
 9955400        2 
 9955500        2 
 9955600        2 
 9955700        2 
 9955800        2 
 9955900        2 
 9956000        2 
 9956100        2 
 9956200        2 
 9956300        2 
 9956400        2 
 9956500        2 
 9956600        2 
 9956700        2 
 9956800        2 
 9956900        2 
 9957000        2 
 9957100        2 
 9957200        2 
 9957300        2 
 9957400        2 
 9957500        2 
 9957600        2 
 9957700        2 
 9957800        2 
 9957900        2 
 9958000        2 
 9958100        2 
 9958200        2 
 9958300        2 
 9958400        2 
 9958500        2 
 9958600        2 
 9958700        2 
 9958800        2 
 9958900        2 
 9959000        2 
 9959100        2 
 9959200        2 
 9959300        2 
 9959400        2 
 9959500        2 
 9959600        2 
 9959700        2 
 9959800        2 
 9959900        2 
 9960000        2 
 9960100        2 
 9960200        2 
 9960300        2 
 9960400        2 
 9960500        2 
 9960600        2 
 9960700        2 
 9960800        2 
 9960900        2 
 9961000        2 
 9961100        2 
 9961200        2 
 9961300        2 
 9961400        2 
 9961500        2 
 9961600        2 
 9961700        2 
 9961800        2 
 9961900        2 
 9962000        2 
 9962100        2 
 9962200        2 
 9962300        2 
 9962400        2 
 9962500        2 
 9962600        2 
 9962700        2 
 9962800        2 
 9962900        2 
 9963000        2 
 9963100        2 
 9963200        2 
 9963300        2 
 9963400        2 
 9963500        2 
 9963600        2 
 9963700        2 
 9963800        2 
 9963900        2 
 9964000        2 
 9964100        2 
 9964200        2 
 9964300        2 
 9964400        2 
 9964500        2 
 9964600        2 
 9964700        2 
 9964800        2 
 9964900        2 
 9965000        2 
 9965100        2 
 9965200        2 
 9965300        2 
 9965400        2 
 9965500        2 
 9965600        2 
 9965700        2 
 9965800        2 
 9965900        2 
 9966000        2 
 9966100        2 
 9966200        2 
 9966300        2 
 9966400        2 
 9966500        2 
 9966600        2 
 9966700        2 
 9966800        2 
 9966900        2 
 9967000        2 
 9967100        2 
 9967200        2 
 9967300        2 
 9967400        2 
 9967500        2 
 9967600        2 
 9967700        2 
 9967800        2 
 9967900        2 
 9968000        2 
 9968100        2 
 9968200        2 
 9968300        2 
 9968400        2 
 9968500        2 
 9968600        2 
 9968700        2 
 9968800        2 
 9968900        2 
 9969000        2 
 9969100        2 
 9969200        2 
 9969300        2 
 9969400        2 
 9969500        2 
 9969600        2 
 9969700        2 
 9969800        2 
 9969900        2 
 9970000        2 
 9970100        2 
 9970200        2 
 9970300        2 
 9970400        2 
 9970500        2 
 9970600        2 
 9970700        2 
 9970800        2 
 9970900        2 
 9971000        2 
 9971100        2 
 9971200        2 
 9971300        2 
 9971400        2 
 9971500        2 
 9971600        2 
 9971700        2 
 9971800        2 
 9971900        2 
 9972000        2 
 9972100        2 
 9972200        2 
 9972300        2 
 9972400        2 
 9972500        2 
 9972600        2 
 9972700        2 
 9972800        2 
 9972900        2 
 9973000        2 
 9973100        2 
 9973200        2 
 9973300        2 
 9973400        2 
 9973500        2 
 9973600        2 
 9973700        2 
 9973800        2 
 9973900        2 
 9974000        2 
 9974100        2 
 9974200        2 
 9974300        2 
 9974400        2 
 9974500        2 
 9974600        2 
 9974700        2 
 9974800        2 
 9974900        2 
 9975000        2 
 9975100        2 
 9975200        2 
 9975300        2 
 9975400        2 
 9975500        2 
 9975600        2 
 9975700        2 
 9975800        2 
 9975900        2 
 9976000        2 
 9976100        2 
 9976200        2 
 9976300        2 
 9976400        2 
 9976500        2 
 9976600        2 
 9976700        2 
 9976800        2 
 9976900        2 
 9977000        2 
 9977100        2 
 9977200        2 
 9977300        2 
 9977400        2 
 9977500        2 
 9977600        2 
 9977700        2 
 9977800        2 
 9977900        2 
 9978000        2 
 9978100        2 
 9978200        2 
 9978300        2 
 9978400        2 
 9978500        2 
 9978600        2 
 9978700        2 
 9978800        2 
 9978900        2 
 9979000        2 
 9979100        2 
 9979200        2 
 9979300        2 
 9979400        2 
 9979500        2 
 9979600        2 
 9979700        2 
 9979800        2 
 9979900        2 
 9980000        2 
 9980100        2 
 9980200        2 
 9980300        2 
 9980400        2 
 9980500        2 
 9980600        2 
 9980700        2 
 9980800        2 
 9980900        2 
 9981000        2 
 9981100        2 
 9981200        2 
 9981300        2 
 9981400        2 
 9981500        2 
 9981600        2 
 9981700        2 
 9981800        2 
 9981900        2 
 9982000        2 
 9982100        2 
 9982200        2 
 9982300        2 
 9982400        2 
 9982500        2 
 9982600        2 
 9982700        2 
 9982800        2 
 9982900        2 
 9983000        2 
 9983100        2 
 9983200        2 
 9983300        2 
 9983400        2 
 9983500        2 
 9983600        2 
 9983700        2 
 9983800        2 
 9983900        2 
 9984000        2 
 9984100        2 
 9984200        2 
 9984300        2 
 9984400        2 
 9984500        2 
 9984600        2 
 9984700        2 
 9984800        2 
 9984900        2 
 9985000        2 
 9985100        2 
 9985200        2 
 9985300        2 
 9985400        2 
 9985500        2 
 9985600        2 
 9985700        2 
 9985800        2 
 9985900        2 
 9986000        2 
 9986100        2 
 9986200        2 
 9986300        2 
 9986400        2 
 9986500        2 
 9986600        2 
 9986700        2 
 9986800        2 
 9986900        2 
 9987000        2 
 9987100        2 
 9987200        2 
 9987300        2 
 9987400        2 
 9987500        2 
 9987600        2 
 9987700        2 
 9987800        2 
 9987900        2 
 9988000        2 
 9988100        2 
 9988200        2 
 9988300        2 
 9988400        2 
 9988500        2 
 9988600        2 
 9988700        2 
 9988800        2 
 9988900        2 
 9989000        2 
 9989100        2 
 9989200        2 
 9989300        2 
 9989400        2 
 9989500        2 
 9989600        2 
 9989700        2 
 9989800        2 
 9989900        2 
 9990000        2 
 9990100        2 
 9990200        2 
 9990300        2 
 9990400        2 
 9990500        2 
 9990600        2 
 9990700        2 
 9990800        2 
 9990900        2 
 9991000        2 
 9991100        2 
 9991200        2 
 9991300        2 
 9991400        2 
 9991500        2 
 9991600        2 
 9991700        2 
 9991800        2 
 9991900        2 
 9992000        2 
 9992100        2 
 9992200        2 
 9992300        2 
 9992400        2 
 9992500        2 
 9992600        2 
 9992700        2 
 9992800        2 
 9992900        2 
 9993000        2 
 9993100        2 
 9993200        2 
 9993300        2 
 9993400        2 
 9993500        2 
 9993600        2 
 9993700        2 
 9993800        2 
 9993900        2 
 9994000        2 
 9994100        2 
 9994200        2 
 9994300        2 
 9994400        2 
 9994500        2 
 9994600        2 
 9994700        2 
 9994800        2 
 9994900        2 
 9995000        2 
 9995100        2 
 9995200        2 
 9995300        2 
 9995400        2 
 9995500        2 
 9995600        2 
 9995700        2 
 9995800        2 
 9995900        2 
 9996000        2 
 9996100        2 
 9996200        2 
 9996300        2 
 9996400        2 
 9996500        2 
 9996600        2 
 9996700        2 
 9996800        2 
 9996900        2 
 9997000        2 
 9997100        2 
 9997200        2 
 9997300        2 
 9997400        2 
 9997500        2 
 9997600        2 
 9997700        2 
 9997800        2 
 9997900        2 
 9998000        2 
 9998100        2 
 9998200        2 
 9998300        2 
 9998400        2 
 9998500        2 
 9998600        2 
 9998700        2 
 9998800        2 
 9998900        2 
 9999000        2 
 9999100        2 
 9999200        2 
 9999300        2 
 9999400        2 
 9999500        2 
 9999600        2 
 9999700        2 
 9999800        2 
 9999900        2 
10000000        2 
Loop time of 142.651 on 1 procs for 10000000 steps with 2 atoms

Performance: 6056739702579754.000 ns/day, 0.000 hours/ns, 70101.154 timesteps/s
98.0% CPU use with 1 MPI tasks x no OpenMP threads

MPI task timing breakdown:
Section |  min time  |  avg time  |  max time  |%varavg| %total
---------------------------------------------------------------
Pair    | 2.6784     | 2.6784     | 2.6784     |   0.0 |  1.88
Bond    | 0.99391    | 0.99391    | 0.99391    |   0.0 |  0.70
Neigh   | 0.0010774  | 0.0010774  | 0.0010774  |   0.0 |  0.00
Comm    | 0.85204    | 0.85204    | 0.85204    |   0.0 |  0.60
Output  | 2.9283     | 2.9283     | 2.9283     |   0.0 |  2.05
Modify  | 133.26     | 133.26     | 133.26     |   0.0 | 93.42
Other   |            | 1.934      |            |       |  1.36

Nlocal:    2 ave 2 max 2 min
Histogram: 1 0 0 0 0 0 0 0 0 0
Nghost:    0 ave 0 max 0 min
Histogram: 1 0 0 0 0 0 0 0 0 0
Neighs:    0 ave 0 max 0 min
Histogram: 1 0 0 0 0 0 0 0 0 0
FullNghs:  0 ave 0 max 0 min
Histogram: 1 0 0 0 0 0 0 0 0 0

Total # of neighbors = 0
Ave neighs/atom = 0
Ave special neighs/atom = 1
Neighbor list builds = 393
Dangerous builds = 0
Total wall time: 0:02:22
